 vasp.6.4.0 14Feb23 (build Mar 11 2024 14:58:30) complex                         
 executed on             epyc9004 date 2024.12.12  02:31:47
 running   16 mpi-ranks, on    1 nodes
 distrk:  each k-point on   16 cores,    1 groups
 distr:  one band on NCORE=   8 cores,    2 groups


--------------------------------------------------------------------------------------------------------


 INCAR:
   ENCUT = 520.000000
   SIGMA = 0.050000
   TIME = 0.050000
   NUPDOWN = 20.000000
   EDIFF = 1.00e-06
   EDIFFG = -2.00e-02
   SYMPREC = 1.00e-07
   ALGO = all
   GGA = PE
   PREC = accurate
   IBRION = 2
   ISIF = 3
   ISMEAR = 0
   ISPIN = 2
   ISTART = 0
   ISYM = 0
   LMAXMIX = 4
   LORBIT = 12
   NELM = 400
   NELMIN = 8
   NSW = 1
   NCORE = 8
   LASPH = .TRUE.
   LCHARG = .TRUE.
   LDAU = .TRUE.
   LWAVE = .FALSE.
   LREAL = auto
   LDAUL = -1 2 -1 -1
   LDAUU = 0.000 5.300 0.000 0.000
   LDAUJ = 0.000 0.000 0.000 0.000

 POTCAR:    PAW_PBE Na_pv 19Sep2006               
 POTCAR:    PAW_PBE Fe_pv 02Aug2007               
 POTCAR:    PAW_PBE P 06Sep2000                   
 POTCAR:    PAW_PBE O 08Apr2002                   
 -----------------------------------------------------------------------------
|                                                                             |
|           W    W    AA    RRRRR   N    N  II  N    N   GGGG   !!!           |
|           W    W   A  A   R    R  NN   N  II  NN   N  G    G  !!!           |
|           W    W  A    A  R    R  N N  N  II  N N  N  G       !!!           |
|           W WW W  AAAAAA  RRRRR   N  N N  II  N  N N  G  GGG   !            |
|           WW  WW  A    A  R   R   N   NN  II  N   NN  G    G                |
|           W    W  A    A  R    R  N    N  II  N    N   GGGG   !!!           |
|                                                                             |
|     You use a magnetic or noncollinear calculation, but did not specify     |
|     the initial magnetic moment with the MAGMOM tag. Note that a            |
|     default of 0.12 will be used for all atoms. This ferromagnetic          |
|     setup may break the symmetry of the crystal, in particular it may       |
|     rule out finding an antiferromagnetic solution. Thence, we              |
|     recommend setting the initial magnetic moment manually or verifying     |
|     carefully that this magnetic setup is desired.                          |
|                                                                             |
 -----------------------------------------------------------------------------

 POTCAR:    PAW_PBE Na_pv 19Sep2006               
   VRHFIN =Na: p6s1                                                                                 
   LEXCH  = PE                                                                                      
   EATOM  =   766.0439 eV,   56.3026 Ry                                                             
                                                                                                    
   TITEL  = PAW_PBE Na_pv 19Sep2006                                                                 
   LULTRA =        F    use ultrasoft PP ?                                                          
   IUNSCR =        1    unscreen: 0-lin 1-nonlin 2-no                                               
   RPACOR =    1.800    partial core radius                                                         
   POMASS =   22.990; ZVAL   =    7.000    mass and valenz                                          
   RCORE  =    2.200    outmost cutoff radius                                                       
   RWIGS  =    2.200; RWIGS  =    1.164    wigner-seitz radius (au A)                               
   ENMAX  =  259.561; ENMIN  =  194.671 eV                                                          
   ICORE  =        2    local potential                                                             
   LCOR   =        T    correct aug charges                                                         
   LPAW   =        T    paw PP                                                                      
   EAUG   =  368.056                                                                                
   DEXC   =    0.000                                                                                
   RMAX   =    2.245    core radius for proj-oper                                                   
   RAUG   =    1.300    factor for augmentation sphere                                              
   RDEP   =    2.259    radius for radial grids                                                     
   RDEPT  =    1.738    core radius for aug-charge                                                  
                                                                                                    
   Atomic configuration                                                                             
    5 entries                                                                                       
     n  l   j            E        occ.                                                              
     1  0  0.50     -1033.6933   2.0000                                                             
     2  0  0.50       -56.7526   2.0000                                                             
     2  1  1.50       -28.6721   6.0000                                                             
     3  0  0.50        -2.7440   1.0000                                                             
     3  2  1.50        -1.3606   0.0000                                                             
   Description                                                                                      
     l       E           TYP  RCUT    TYP  RCUT                                                     
     1    -28.6720912     23  2.000                                                                 
     1      6.8029130     23  2.000                                                                 
     0     -2.7439560     23  2.200                                                                 
     0     34.0145650     23  2.200                                                                 
     2     -1.3605826     23  2.200                                                                 
  local pseudopotential read in
  partial core-charges read in
  partial kinetic energy density read in
  atomic valenz-charges read in
  non local Contribution for L=           1  read in
    real space projection operators read in
  non local Contribution for L=           1  read in
    real space projection operators read in
  non local Contribution for L=           0  read in
    real space projection operators read in
  non local Contribution for L=           0  read in
    real space projection operators read in
    PAW grid and wavefunctions read in

   number of l-projection  operators is LMAX  =           4
   number of lm-projection operators is LMMAX =           8

 POTCAR:    PAW_PBE Fe_pv 02Aug2007               
   VRHFIN =Fe:  3pd7s1                                                                              
   LEXCH  = PE                                                                                      
   EATOM  =  2457.4239 eV,  180.6156 Ry                                                             
                                                                                                    
   TITEL  = PAW_PBE Fe_pv 02Aug2007                                                                 
   LULTRA =        F    use ultrasoft PP ?                                                          
   IUNSCR =        1    unscreen: 0-lin 1-nonlin 2-no                                               
   RPACOR =    1.750    partial core radius                                                         
   POMASS =   55.847; ZVAL   =   14.000    mass and valenz                                          
   RCORE  =    2.200    outmost cutoff radius                                                       
   RWIGS  =    2.200; RWIGS  =    1.164    wigner-seitz radius (au A)                               
   ENMAX  =  293.238; ENMIN  =  219.928 eV                                                          
   ICORE  =        3    local potential                                                             
   LCOR   =        T    correct aug charges                                                         
   LPAW   =        T    paw PP                                                                      
   EAUG   =  578.342                                                                                
   DEXC   =    0.000                                                                                
   RMAX   =    2.249    core radius for proj-oper                                                   
   RAUG   =    1.300    factor for augmentation sphere                                              
   RDEP   =    2.296    radius for radial grids                                                     
   RDEPT  =    1.766    core radius for aug-charge                                                  
                                                                                                    
   Atomic configuration                                                                             
    8 entries                                                                                       
     n  l   j            E        occ.                                                              
     1  0  0.50     -6993.8440   2.0000                                                             
     2  0  0.50      -814.6047   2.0000                                                             
     2  1  1.50      -693.3689   6.0000                                                             
     3  0  0.50       -89.4732   2.0000                                                             
     3  1  1.50       -55.6373   6.0000                                                             
     3  2  2.50        -3.8151   7.0000                                                             
     4  0  0.50        -4.2551   1.0000                                                             
     4  3  2.50        -1.3606   0.0000                                                             
   Description                                                                                      
     l       E           TYP  RCUT    TYP  RCUT                                                     
     1    -55.6372668     23  2.000                                                                 
     1     -5.4423304     23  2.000                                                                 
     2     -3.8151096     23  2.200                                                                 
     2     -5.1756922     23  2.200                                                                 
     0     -4.2550951     23  2.200                                                                 
     0     27.2116520     23  2.200                                                                 
     3     -1.3605826     23  2.200                                                                 
  local pseudopotential read in
  partial core-charges read in
  partial kinetic energy density read in
  atomic valenz-charges read in
  non local Contribution for L=           1  read in
    real space projection operators read in
  non local Contribution for L=           1  read in
    real space projection operators read in
  non local Contribution for L=           2  read in
    real space projection operators read in
  non local Contribution for L=           2  read in
    real space projection operators read in
  non local Contribution for L=           0  read in
    real space projection operators read in
  non local Contribution for L=           0  read in
    real space projection operators read in
    PAW grid and wavefunctions read in

   number of l-projection  operators is LMAX  =           6
   number of lm-projection operators is LMMAX =          18

 POTCAR:    PAW_PBE P 06Sep2000                   
   VRHFIN =P : s2p3                                                                                 
   LEXCH  = PE                                                                                      
   EATOM  =   176.0430 eV,   12.9388 Ry                                                             
                                                                                                    
   TITEL  = PAW_PBE P 06Sep2000                                                                     
   LULTRA =        F    use ultrasoft PP ?                                                          
   IUNSCR =        1    unscreen: 0-lin 1-nonlin 2-no                                               
   RPACOR =    1.500    partial core radius                                                         
   POMASS =   30.974; ZVAL   =    5.000    mass and valenz                                          
   RCORE  =    1.900    outmost cutoff radius                                                       
   RWIGS  =    2.330; RWIGS  =    1.233    wigner-seitz radius (au A)                               
   ENMAX  =  255.040; ENMIN  =  191.280 eV                                                          
   ICORE  =        2    local potential                                                             
   LCOR   =        T    correct aug charges                                                         
   LPAW   =        T    paw PP                                                                      
   EAUG   =  342.924                                                                                
   DEXC   =    0.000                                                                                
   RMAX   =    1.935    core radius for proj-oper                                                   
   RAUG   =    1.300    factor for augmentation sphere                                              
   RDEP   =    1.931    radius for radial grids                                                     
   RDEPT  =    1.794    core radius for aug-charge                                                  
                                                                                                    
   Atomic configuration                                                                             
    6 entries                                                                                       
     n  l   j            E        occ.                                                              
     1  0  0.50     -2084.0982   2.0000                                                             
     2  0  0.50      -173.9859   2.0000                                                             
     2  1  1.50      -124.4865   6.0000                                                             
     3  0  0.50       -13.9692   2.0000                                                             
     3  1  0.50        -5.5067   3.0000                                                             
     3  2  1.50        -5.4423   0.0000                                                             
   Description                                                                                      
     l       E           TYP  RCUT    TYP  RCUT                                                     
     0    -13.9691527     23  1.900                                                                 
     0    -11.7794650     23  1.900                                                                 
     1     -5.5066937     23  1.900                                                                 
     1     -0.2556953     23  1.900                                                                 
     2     -5.4423304     23  1.900                                                                 
  local pseudopotential read in
  partial core-charges read in
  partial kinetic energy density read in
  atomic valenz-charges read in
  non local Contribution for L=           0  read in
    real space projection operators read in
  non local Contribution for L=           0  read in
    real space projection operators read in
  non local Contribution for L=           1  read in
    real space projection operators read in
  non local Contribution for L=           1  read in
    real space projection operators read in
    PAW grid and wavefunctions read in

   number of l-projection  operators is LMAX  =           4
   number of lm-projection operators is LMMAX =           8

 POTCAR:    PAW_PBE O 08Apr2002                   
   VRHFIN =O: s2p4                                                                                  
   LEXCH  = PE                                                                                      
   EATOM  =   432.3788 eV,   31.7789 Ry                                                             
                                                                                                    
   TITEL  = PAW_PBE O 08Apr2002                                                                     
   LULTRA =        F    use ultrasoft PP ?                                                          
   IUNSCR =        1    unscreen: 0-lin 1-nonlin 2-no                                               
   RPACOR =    1.200    partial core radius                                                         
   POMASS =   16.000; ZVAL   =    6.000    mass and valenz                                          
   RCORE  =    1.520    outmost cutoff radius                                                       
   RWIGS  =    1.550; RWIGS  =    0.820    wigner-seitz radius (au A)                               
   ENMAX  =  400.000; ENMIN  =  300.000 eV                                                          
   ICORE  =        2    local potential                                                             
   LCOR   =        T    correct aug charges                                                         
   LPAW   =        T    paw PP                                                                      
   EAUG   =  605.392                                                                                
   DEXC   =    0.000                                                                                
   RMAX   =    1.553    core radius for proj-oper                                                   
   RAUG   =    1.300    factor for augmentation sphere                                              
   RDEP   =    1.550    radius for radial grids                                                     
   RDEPT  =    1.329    core radius for aug-charge                                                  
                                                                                                    
   Atomic configuration                                                                             
    4 entries                                                                                       
     n  l   j            E        occ.                                                              
     1  0  0.50      -514.6923   2.0000                                                             
     2  0  0.50       -23.9615   2.0000                                                             
     2  1  0.50        -9.0305   4.0000                                                             
     3  2  1.50        -9.5241   0.0000                                                             
   Description                                                                                      
     l       E           TYP  RCUT    TYP  RCUT                                                     
     0    -23.9615318     23  1.200                                                                 
     0     -9.5240782     23  1.200                                                                 
     1     -9.0304911     23  1.520                                                                 
     1      8.1634956     23  1.520                                                                 
     2     -9.5240782      7  1.500                                                                 
  local pseudopotential read in
  partial core-charges read in
  partial kinetic energy density read in
  kinetic energy density of atom read in
  atomic valenz-charges read in
  non local Contribution for L=           0  read in
    real space projection operators read in
  non local Contribution for L=           0  read in
    real space projection operators read in
  non local Contribution for L=           1  read in
    real space projection operators read in
  non local Contribution for L=           1  read in
    real space projection operators read in
    PAW grid and wavefunctions read in

   number of l-projection  operators is LMAX  =           4
   number of lm-projection operators is LMMAX =           8

 Optimization of the real space projectors (new method)

 maximal supplied QI-value         = 17.01
 optimisation between [QCUT,QGAM] = [ 11.57, 23.30] = [ 37.45,152.03] Ry 
 Optimized for a Real-space Cutoff    1.45 Angstroem

   l    n(q)    QCUT    max X(q) W(low)/X(q) W(high)/X(q)  e(spline) 
   1     10    11.565     4.940    0.87E-04    0.13E-03    0.13E-06
   1     10    11.565     6.253    0.13E-03    0.19E-03    0.20E-06
   0     10    11.565    37.438    0.53E-04    0.73E-05    0.79E-07
   0     10    11.565     9.606    0.27E-04    0.60E-05    0.56E-07
 Optimization of the real space projectors (new method)

 maximal supplied QI-value         = 17.01
 optimisation between [QCUT,QGAM] = [ 11.57, 23.30] = [ 37.45,152.03] Ry 
 Optimized for a Real-space Cutoff    1.45 Angstroem

   l    n(q)    QCUT    max X(q) W(low)/X(q) W(high)/X(q)  e(spline) 
   1     10    11.565     4.267    0.91E-04    0.15E-03    0.13E-06
   1     10    11.565     5.750    0.14E-03    0.22E-03    0.20E-06
   2      9    11.565    53.656    0.13E-03    0.57E-04    0.16E-06
   2      9    11.565    49.521    0.13E-03    0.59E-04    0.16E-06
   0     10    11.565    31.246    0.61E-04    0.74E-05    0.89E-07
   0     10    11.565    12.201    0.44E-04    0.68E-05    0.74E-07
 Optimization of the real space projectors (new method)

 maximal supplied QI-value         = 19.84
 optimisation between [QCUT,QGAM] = [ 11.51, 23.22] = [ 37.09,150.92] Ry 
 Optimized for a Real-space Cutoff    1.21 Angstroem

   l    n(q)    QCUT    max X(q) W(low)/X(q) W(high)/X(q)  e(spline) 
   0      8    11.508   160.924    0.96E-04    0.17E-03    0.52E-07
   0      8    11.508   130.086    0.95E-04    0.17E-03    0.51E-07
   1      8    11.508    74.434    0.16E-03    0.74E-04    0.91E-07
   1      8    11.508    49.120    0.16E-03    0.71E-04    0.89E-07
 Optimization of the real space projectors (new method)

 maximal supplied QI-value         = 24.76
 optimisation between [QCUT,QGAM] = [ 11.64, 23.27] = [ 37.91,151.63] Ry 
 Optimized for a Real-space Cutoff    1.14 Angstroem

   l    n(q)    QCUT    max X(q) W(low)/X(q) W(high)/X(q)  e(spline) 
   0      8    11.635    20.381    0.10E-03    0.33E-03    0.24E-06
   0      8    11.635    15.268    0.11E-03    0.35E-03    0.26E-06
   1      7    11.635     5.964    0.24E-03    0.31E-03    0.30E-06
   1      7    11.635     5.382    0.22E-03    0.25E-03    0.26E-06
  PAW_PBE Na_pv 19Sep2006               :
 energy of atom  1       EATOM= -766.0439
 kinetic energy error for atom=    0.0019 (will be added to EATOM!!)
  PAW_PBE Fe_pv 02Aug2007               :
 energy of atom  2       EATOM=-2457.4239
 kinetic energy error for atom=    0.0062 (will be added to EATOM!!)
  PAW_PBE P 06Sep2000                   :
 energy of atom  3       EATOM= -176.0430
 kinetic energy error for atom=    0.0011 (will be added to EATOM!!)
  PAW_PBE O 08Apr2002                   :
 energy of atom  4       EATOM= -432.3788
 kinetic energy error for atom=    0.0208 (will be added to EATOM!!)


 POSCAR: Na Fe P  O
  positions in cartesian coordinates
  No initial velocities read in
 exchange correlation table for  LEXCH =        8
   RHO(1)=    0.500       N(1)  =     2000
   RHO(2)=  100.500       N(2)  =     4000



--------------------------------------------------------------------------------------------------------


 ion  position               nearest neighbor table
   1  0.500  0.000  0.250-  79 2.30 141 2.30 136 2.31  74 2.31
   2  1.000  0.167  1.000-  76 2.30  94 2.30  75 2.31  89 2.31
   3  0.500  0.167  0.250-  79 2.30  77 2.30  72 2.31  74 2.31
   4  1.000  0.000  1.000-  94 2.30 140 2.30  75 2.31 153 2.31
   5  0.500  0.000  0.750-  95 2.30 157 2.30 152 2.31  90 2.31
   6  1.000  0.167  0.500-  92 2.30  78 2.30  91 2.31  73 2.31
   7  0.500  0.167  0.750-  95 2.30  93 2.30  88 2.31  90 2.31
   8  1.000  0.000  0.500-  78 2.30 156 2.30  91 2.31 137 2.31
   9  0.500  0.333  0.250- 111 2.30  77 2.30  72 2.31 106 2.31
  10  1.000  0.500  1.000- 108 2.30 126 2.30 107 2.31 121 2.31
  11  0.500  0.500  0.250- 109 2.30 111 2.30 104 2.31 106 2.31
  12  1.000  0.333  1.000- 126 2.30  76 2.30 107 2.31  89 2.31
  13  1.000  0.500  0.500- 124 2.30 110 2.30 123 2.31 105 2.31
  14  0.500  0.500  0.750- 125 2.30 127 2.30 120 2.31 122 2.31
  15  1.000  0.333  0.500- 110 2.30  92 2.30 123 2.31  73 2.31
  16  0.500  0.667  0.250- 143 2.30 109 2.30 104 2.31 138 2.31
  17  1.000  0.833  1.000- 140 2.30 158 2.30 139 2.31 153 2.31
  18  0.500  0.833  0.250- 141 2.30 143 2.30 136 2.31 138 2.31
  19  1.000  0.667  1.000- 158 2.30 108 2.30 139 2.31 121 2.31
  20  0.500  0.667  0.750- 159 2.30 125 2.30 120 2.31 154 2.31
  21  1.000  0.833  0.500- 156 2.30 142 2.30 155 2.31 137 2.31
  22  0.500  0.833  0.750- 157 2.30 159 2.30 152 2.31 154 2.31
  23  1.000  0.667  0.500- 142 2.30 124 2.30 155 2.31 105 2.31
  24  0.786  0.250  0.258- 115 2.08  85 2.09  76 2.09  72 2.12  80 2.34  86 2.34
  25  0.286  0.250  0.492- 116 2.08  93 2.09  82 2.09  73 2.13  97 2.34 103 2.34
  26  0.214  0.083  0.242-  81 2.09 151 2.09  78 2.10  74 2.13  84 2.34  82 2.34
  27  0.714  0.083  0.008-  86 2.09 144 2.09  95 2.10  75 2.12 101 2.34  99 2.34
  28  0.785  0.250  0.758- 131 2.08 101 2.09  92 2.09  88 2.12  96 2.34 102 2.34
  29  0.286  0.250  0.992-  98 2.09 132 2.09  77 2.09  89 2.13  81 2.34  87 2.34
  30  0.214  0.083  0.742-  97 2.09 167 2.09  94 2.10  90 2.13  98 2.34 100 2.34
  31  0.714  0.083  0.508- 102 2.09 160 2.09  79 2.10  91 2.12  85 2.34  83 2.34
  32  0.786  0.583  0.258- 147 2.08 117 2.09 108 2.09 104 2.12 112 2.34 118 2.34
  33  0.286  0.583  0.492- 148 2.08 114 2.09 125 2.09 105 2.13 129 2.34 135 2.34
  34  0.214  0.417  0.242- 113 2.09  87 2.09 110 2.10 106 2.13 114 2.34 116 2.34
  35  0.714  0.417  0.008- 118 2.09  80 2.09 127 2.09 107 2.12 133 2.34 131 2.34
  36  0.786  0.583  0.758- 163 2.08 133 2.09 124 2.09 120 2.12 128 2.34 134 2.34
  37  0.286  0.583  0.992- 164 2.08 130 2.09 109 2.09 121 2.13 113 2.34 119 2.34
  38  0.215  0.417  0.742- 103 2.09 129 2.09 126 2.10 122 2.12 132 2.34 130 2.34
  39  0.714  0.417  0.508- 134 2.09  96 2.09 111 2.10 123 2.12 117 2.34 115 2.34
  40  0.786  0.917  0.258-  83 2.08 149 2.09 140 2.09 136 2.12 144 2.34 150 2.34
  41  0.286  0.917  0.492-  84 2.08 146 2.09 157 2.09 137 2.13 161 2.34 167 2.34
  42  0.214  0.750  0.242- 145 2.09 119 2.09 142 2.10 138 2.13 148 2.34 146 2.34
  43  0.714  0.750  0.008- 150 2.09 112 2.09 159 2.10 139 2.12 165 2.34 163 2.34
  44  0.786  0.917  0.758-  99 2.08 165 2.09 156 2.09 152 2.12 160 2.34 166 2.34
  45  0.286  0.917  0.992- 100 2.08 162 2.09 141 2.09 153 2.13 145 2.34 151 2.34
  46  0.214  0.750  0.742- 161 2.09 135 2.09 158 2.10 154 2.13 164 2.34 162 2.34
  47  0.714  0.750  0.508- 166 2.09 128 2.09 143 2.10 155 2.12 149 2.34 147 2.34
  48  0.608  0.250  0.029-  88 1.53  77 1.55  80 1.55  86 1.56
  49  0.109  0.250  0.222-  73 1.53  76 1.56  87 1.56  81 1.57
  50  0.392  0.083  0.472-  90 1.53  79 1.55  82 1.56  84 1.57
  51  0.892  0.083  0.279-  75 1.54  78 1.54  85 1.56  83 1.57
  52  0.609  0.250  0.529-  72 1.54  96 1.55  93 1.55 102 1.56
  53  0.109  0.250  0.722-  89 1.53 103 1.56  92 1.56  97 1.57
  54  0.392  0.083  0.972-  74 1.53  95 1.55  98 1.56 100 1.57
  55  0.892  0.083  0.779-  91 1.54  94 1.54 101 1.56  99 1.57
  56  0.608  0.584  0.029- 120 1.54 109 1.55 112 1.55 118 1.56
  57  0.109  0.584  0.222- 105 1.53 108 1.56 119 1.56 113 1.57
  58  0.392  0.417  0.472- 122 1.52 111 1.55 114 1.56 116 1.57
  59  0.892  0.417  0.279- 107 1.54 110 1.54 117 1.56 115 1.57
  60  0.608  0.584  0.529- 104 1.54 125 1.55 128 1.55 134 1.56
  61  0.109  0.584  0.722- 121 1.53 124 1.56 135 1.56 129 1.57
  62  0.392  0.417  0.972- 106 1.53 127 1.55 130 1.56 132 1.57
  63  0.892  0.417  0.779- 123 1.54 126 1.55 133 1.56 131 1.57
  64  0.608  0.917  0.029- 152 1.54 141 1.55 144 1.55 150 1.56
  65  0.109  0.917  0.222- 137 1.53 140 1.56 151 1.56 145 1.57
  66  0.392  0.750  0.472- 154 1.53 143 1.55 146 1.56 148 1.57
  67  0.892  0.750  0.279- 139 1.54 142 1.54 149 1.56 147 1.57
  68  0.608  0.917  0.529- 136 1.54 157 1.55 160 1.55 166 1.56
  69  0.109  0.917  0.722- 153 1.53 156 1.56 167 1.56 161 1.57
  70  0.392  0.750  0.972- 138 1.53 159 1.55 162 1.56 164 1.57
  71  0.892  0.750  0.779- 155 1.54 158 1.54 165 1.56 163 1.57
  72  0.614  0.250  0.374-  52 1.54  24 2.12   3 2.31   9 2.31
  73  0.114  0.250  0.376-  49 1.53  25 2.13   6 2.31  15 2.31
  74  0.386  0.083  0.126-  54 1.53  26 2.13   1 2.31   3 2.31
  75  0.886  0.083  0.124-  51 1.54  27 2.12   4 2.31   2 2.31
  76  0.968  0.250  0.168-  49 1.56  24 2.09   2 2.30  12 2.30
  77  0.468  0.250  0.082-  48 1.55  29 2.09   3 2.30   9 2.30
  78  0.032  0.083  0.332-  51 1.54  26 2.10   8 2.30   6 2.30
  79  0.532  0.083  0.418-  50 1.55  31 2.10   1 2.30   3 2.30
  80  0.677  0.316  0.092-  48 1.55  35 2.09  24 2.34
  81  0.178  0.184  0.158-  49 1.57  26 2.09  29 2.34
  82  0.323  0.150  0.408-  50 1.56  25 2.09  26 2.34
  83  0.822  0.017  0.342-  51 1.57  40 2.08  31 2.34
  84  0.322  0.017  0.408-  50 1.57  41 2.08  26 2.34
  85  0.823  0.150  0.342-  51 1.56  24 2.09  31 2.34
  86  0.678  0.184  0.092-  48 1.56  27 2.09  24 2.34
  87  0.177  0.316  0.158-  49 1.56  34 2.09  29 2.34
  88  0.615  0.250  0.874-  48 1.53  28 2.12   7 2.31
  89  0.114  0.250  0.876-  53 1.53  29 2.13   2 2.31  12 2.31
  90  0.386  0.083  0.626-  50 1.53  30 2.13   5 2.31   7 2.31
  91  0.886  0.083  0.624-  55 1.54  31 2.12   8 2.31   6 2.31
  92  0.968  0.250  0.668-  53 1.56  28 2.09   6 2.30  15 2.30
  93  0.468  0.250  0.581-  52 1.55  25 2.09   7 2.30
  94  0.032  0.083  0.832-  55 1.54  30 2.10   4 2.30   2 2.30
  95  0.532  0.083  0.918-  54 1.55  27 2.10   5 2.30   7 2.30
  96  0.676  0.316  0.593-  52 1.55  39 2.09  28 2.34
  97  0.178  0.184  0.658-  53 1.57  30 2.09  25 2.34
  98  0.323  0.150  0.908-  54 1.56  29 2.09  30 2.34
  99  0.822  0.017  0.842-  55 1.57  44 2.08  27 2.34
 100  0.322  0.017  0.908-  54 1.57  45 2.08  30 2.34
 101  0.823  0.150  0.842-  55 1.56  28 2.09  27 2.34
 102  0.678  0.184  0.592-  52 1.56  31 2.09  28 2.34
 103  0.177  0.316  0.658-  53 1.56  38 2.09  25 2.34
 104  0.614  0.583  0.374-  60 1.54  32 2.12  11 2.31  16 2.31
 105  0.114  0.583  0.376-  57 1.53  33 2.13  13 2.31  23 2.31
 106  0.386  0.417  0.126-  62 1.53  34 2.13   9 2.31  11 2.31
 107  0.886  0.417  0.124-  59 1.54  35 2.12  12 2.31  10 2.31
 108  0.968  0.583  0.168-  57 1.56  32 2.09  10 2.30  19 2.30
 109  0.468  0.583  0.082-  56 1.55  37 2.09  11 2.30  16 2.30
 110  0.032  0.417  0.332-  59 1.54  34 2.10  15 2.30  13 2.30
 111  0.532  0.417  0.418-  58 1.55  39 2.10   9 2.30  11 2.30
 112  0.677  0.649  0.092-  56 1.55  43 2.09  32 2.34
 113  0.178  0.517  0.158-  57 1.57  34 2.09  37 2.34
 114  0.323  0.483  0.408-  58 1.56  33 2.09  34 2.34
 115  0.822  0.350  0.342-  59 1.57  24 2.08  39 2.34
 116  0.322  0.350  0.408-  58 1.57  25 2.08  34 2.34
 117  0.823  0.483  0.342-  59 1.56  32 2.09  39 2.34
 118  0.678  0.517  0.092-  56 1.56  35 2.09  32 2.34
 119  0.177  0.650  0.158-  57 1.56  42 2.09  37 2.34
 120  0.614  0.583  0.874-  56 1.54  36 2.12  14 2.31  20 2.31
 121  0.114  0.583  0.876-  61 1.53  37 2.13  10 2.31  19 2.31
 122  0.385  0.417  0.625-  58 1.52  38 2.12  14 2.31
 123  0.886  0.417  0.624-  63 1.54  39 2.12  15 2.31  13 2.31
 124  0.968  0.583  0.668-  61 1.56  36 2.09  13 2.30  23 2.30
 125  0.468  0.583  0.582-  60 1.55  33 2.09  14 2.30  20 2.30
 126  0.032  0.417  0.832-  63 1.55  38 2.10  12 2.30  10 2.30
 127  0.532  0.417  0.919-  62 1.55  35 2.09  14 2.30
 128  0.677  0.649  0.592-  60 1.55  47 2.09  36 2.34
 129  0.178  0.517  0.658-  61 1.57  38 2.09  33 2.34
 130  0.323  0.483  0.908-  62 1.56  37 2.09  38 2.34
 131  0.823  0.350  0.842-  63 1.57  28 2.08  35 2.34
 132  0.323  0.350  0.907-  62 1.57  29 2.09  38 2.34
 133  0.823  0.483  0.842-  63 1.56  36 2.09  35 2.34
 134  0.678  0.517  0.592-  60 1.56  39 2.09  36 2.34
 135  0.177  0.650  0.658-  61 1.56  46 2.09  33 2.34
 136  0.614  0.917  0.374-  68 1.54  40 2.12  18 2.31   1 2.31
 137  0.114  0.917  0.376-  65 1.53  41 2.13  21 2.31   8 2.31
 138  0.386  0.750  0.126-  70 1.53  42 2.13  16 2.31  18 2.31
 139  0.886  0.750  0.124-  67 1.54  43 2.12  19 2.31  17 2.31
 140  0.968  0.917  0.168-  65 1.56  40 2.09  17 2.30   4 2.30
 141  0.468  0.917  0.082-  64 1.55  45 2.09  18 2.30   1 2.30
 142  0.032  0.750  0.332-  67 1.54  42 2.10  23 2.30  21 2.30
 143  0.532  0.750  0.418-  66 1.55  47 2.10  16 2.30  18 2.30
 144  0.677  0.983  0.092-  64 1.55  27 2.09  40 2.34
 145  0.178  0.850  0.158-  65 1.57  42 2.09  45 2.34
 146  0.323  0.816  0.408-  66 1.56  41 2.09  42 2.34
 147  0.822  0.684  0.342-  67 1.57  32 2.08  47 2.34
 148  0.322  0.684  0.408-  66 1.57  33 2.08  42 2.34
 149  0.823  0.816  0.342-  67 1.56  40 2.09  47 2.34
 150  0.678  0.850  0.092-  64 1.56  43 2.09  40 2.34
 151  0.177  0.983  0.158-  65 1.56  26 2.09  45 2.34
 152  0.614  0.917  0.874-  64 1.54  44 2.12  22 2.31   5 2.31
 153  0.114  0.917  0.876-  69 1.53  45 2.13  17 2.31   4 2.31
 154  0.386  0.750  0.626-  66 1.53  46 2.13  20 2.31  22 2.31
 155  0.886  0.750  0.624-  71 1.54  47 2.12  23 2.31  21 2.31
 156  0.968  0.917  0.668-  69 1.56  44 2.09  21 2.30   8 2.30
 157  0.468  0.917  0.582-  68 1.55  41 2.09  22 2.30   5 2.30
 158  0.032  0.750  0.832-  71 1.54  46 2.10  19 2.30  17 2.30
 159  0.532  0.750  0.918-  70 1.55  43 2.10  20 2.30  22 2.30
 160  0.677  0.983  0.592-  68 1.55  31 2.09  44 2.34
 161  0.178  0.850  0.658-  69 1.57  46 2.09  41 2.34
 162  0.323  0.816  0.908-  70 1.56  45 2.09  46 2.34
 163  0.822  0.684  0.842-  71 1.57  36 2.08  43 2.34
 164  0.322  0.684  0.908-  70 1.57  37 2.08  46 2.34
 165  0.823  0.816  0.842-  71 1.56  44 2.09  43 2.34
 166  0.678  0.850  0.592-  68 1.56  47 2.09  44 2.34
 167  0.177  0.983  0.658-  69 1.56  30 2.09  41 2.34


IMPORTANT INFORMATION: All symmetrisations will be switched off!
NOSYMM: (Re-)initialisation of all symmetry stuff for point group C_1.


----------------------------------------------------------------------------------------

                                     Primitive cell                                     

  volume of cell :    1920.7920

  direct lattice vectors                    reciprocal lattice vectors
    10.406300000  0.000000000  0.000000000     0.096095634  0.000000000  0.000000000
     0.000000000 18.656100000  0.000000000     0.000000000  0.053601771  0.000000000
     0.000000000  0.000000000  9.893800000     0.000000000  0.000000000  0.101073400

  length of vectors
    10.406300000 18.656100000  9.893800000     0.096095634  0.053601771  0.101073400

  position of ions in fractional coordinates (direct lattice)
     0.499973641  0.000047760  0.250034747
     0.999982391  0.166683908  0.999973580
     0.500036953  0.166679383  0.250000539
     0.999955340  0.000031393  0.999906638
     0.499972573  0.000051088  0.750035891
     0.999982659  0.166685435  0.499971381
     0.500024359  0.166619395  0.750034456
     0.999955386  0.000031346  0.499906523
     0.499972255  0.333383042  0.250030548
     0.999982627  0.500018293  0.999971028
     0.500035260  0.500011898  0.249987532
     0.999949856  0.333365501  0.999905837
     0.999982775  0.500019734  0.499968884
     0.500047644  0.500073163  0.749989138
     0.999958588  0.333363487  0.499909501
     0.499973790  0.666714019  0.250034536
     0.999982725  0.833351989  0.999971191
     0.500036502  0.833345843  0.249998405
     0.999955372  0.666697858  0.999906863
     0.499975170  0.666709308  0.750033344
     0.999982726  0.833351991  0.499971191
     0.500036503  0.833345878  0.749998395
     0.999955371  0.666697841  0.499906759
     0.785713714  0.250050793  0.257977550
     0.285828820  0.250019941  0.492022974
     0.214251633  0.083313783  0.241903412
     0.714346553  0.083335043  0.008134906
     0.785465573  0.250111785  0.757917131
     0.285772161  0.250004979  0.992032269
     0.214251000  0.083313823  0.741904323
     0.714345351  0.083337727  0.508135659
     0.785714368  0.583385394  0.257973021
     0.285815582  0.583344134  0.491988080
     0.214250750  0.416647967  0.241900094
     0.714335761  0.416656744  0.008096560
     0.785713864  0.583385105  0.757971828
     0.285817320  0.583339114  0.991986979
     0.214508201  0.416585315  0.741961224
     0.714391561  0.416678778  0.508078791
     0.785713935  0.916718022  0.257972390
     0.285816093  0.916675025  0.491988596
     0.214252039  0.749980756  0.241904012
     0.714346304  0.750002343  0.008134618
     0.785713867  0.916718035  0.757972386
     0.285816107  0.916675007  0.991988638
     0.214252126  0.749980742  0.741904014
     0.714346314  0.750002398  0.508134569
     0.608429938  0.250201369  0.029178452
     0.108552184  0.250185700  0.221512011
     0.391918741  0.083479208  0.471502756
     0.891980050  0.083455805  0.279170471
     0.608604938  0.250164163  0.529125244
     0.108546978  0.250182406  0.721514413
     0.391919848  0.083479931  0.971503678
     0.891979656  0.083456288  0.779170945
     0.608468517  0.583506161  0.029177888
     0.108551930  0.583518749  0.221511618
     0.391955820  0.416782742  0.471509134
     0.891979395  0.416788492  0.279170926
     0.608470114  0.583508763  0.529179298
     0.108552697  0.583517928  0.721510727
     0.391839990  0.416826770  0.971543128
     0.891984660  0.416792120  0.779166598
     0.608469048  0.916841332  0.029180488
     0.108551636  0.916851839  0.221511590
     0.391919947  0.750146359  0.471503708
     0.891980317  0.750122326  0.279170472
     0.608469123  0.916841305  0.529180423
     0.108551645  0.916851851  0.721511586
     0.391919870  0.750146385  0.971503807
     0.891980314  0.750122322  0.779170477
     0.613942777  0.249985785  0.373931783
     0.113871711  0.249975320  0.375561988
     0.386069854  0.083317663  0.125558182
     0.885982747  0.083343262  0.123828165
     0.967683847  0.249989170  0.168267011
     0.467776676  0.249994480  0.081643734
     0.031821274  0.083292860  0.331617812
     0.531947432  0.083297195  0.418289098
     0.677380341  0.316085163  0.092141777
     0.177636004  0.183700003  0.157633131
     0.322518281  0.149555507  0.407721405
     0.822406591  0.016983644  0.342384752
     0.322381835  0.016948962  0.407633218
     0.822546868  0.149506553  0.342267261
     0.677575099  0.183743268  0.092362004
     0.177449455  0.316183311  0.157824659
     0.614548311  0.249590811  0.874460861
     0.113891580  0.249986861  0.875560967
     0.386082878  0.083323161  0.625575425
     0.885980890  0.083344020  0.623828191
     0.967672167  0.249988308  0.668267547
     0.467557003  0.249617737  0.580880538
     0.031820392  0.083293199  0.831617990
     0.531939270  0.083305845  0.918262395
     0.676479911  0.316165720  0.593039848
     0.177639105  0.183700690  0.657632528
     0.322522715  0.149554176  0.907708832
     0.822406511  0.016983855  0.842384777
     0.322381811  0.016948531  0.907633260
     0.822547733  0.149505920  0.842263505
     0.677559370  0.183789889  0.592378854
     0.177321029  0.316178532  0.657785797
     0.613951110  0.583320150  0.373897258
     0.113869141  0.583308019  0.375560102
     0.386075300  0.416657690  0.125573767
     0.885983102  0.416675735  0.123827863
     0.967683714  0.583322489  0.168266819
     0.467768717  0.583318626  0.081684380
     0.031821214  0.416625553  0.331617792
     0.531936957  0.416621102  0.418334601
     0.677403170  0.649417916  0.092187650
     0.177637135  0.517032072  0.157633253
     0.322516305  0.482883428  0.407729713
     0.822396987  0.350315752  0.342395467
     0.322408128  0.350285221  0.407688648
     0.822547363  0.482838162  0.342268480
     0.677570553  0.517073823  0.092364446
     0.177443726  0.649515822  0.157830317
     0.613940346  0.583316061  0.873883179
     0.113870647  0.583307637  0.875560540
     0.385453246  0.417054974  0.624938497
     0.885959500  0.416663138  0.623827368
     0.967684271  0.583322219  0.668266665
     0.467777050  0.583311045  0.581709024
     0.031831478  0.416626230  0.831618021
     0.532118023  0.417022817  0.919132057
     0.677402875  0.649418426  0.592187554
     0.177632380  0.517033758  0.657638970
     0.322531135  0.482847550  0.907703235
     0.822524731  0.350317921  0.842433594
     0.323290136  0.350196785  0.906764137
     0.822544536  0.482838052  0.842268601
     0.677570047  0.517074938  0.592372850
     0.177443692  0.649515618  0.657830405
     0.613951293  0.916652438  0.373897597
     0.113869144  0.916641053  0.375560331
     0.386069450  0.749984568  0.125557642
     0.885982764  0.750009717  0.123828188
     0.967683586  0.916655270  0.168266796
     0.467770740  0.916651203  0.081681712
     0.031821439  0.749959513  0.331617788
     0.531945924  0.749964521  0.418291165
     0.677402862  0.982751500  0.092187349
     0.177635475  0.850365805  0.157634406
     0.322515414  0.816219580  0.407716983
     0.822406721  0.683650342  0.342384713
     0.322382076  0.683615696  0.407633300
     0.822548589  0.816172734  0.342265847
     0.677573681  0.850409181  0.092368668
     0.177443394  0.982849164  0.157830691
     0.613951720  0.916652178  0.873898051
     0.113869132  0.916641047  0.875560324
     0.386069032  0.749984819  0.625557165
     0.885982770  0.750009715  0.623828193
     0.967683587  0.916655264  0.668266801
     0.467770624  0.916650897  0.581681125
     0.031821433  0.749959520  0.831617788
     0.531946065  0.749964929  0.918291939
     0.677403126  0.982751534  0.592187146
     0.177635464  0.850365812  0.657634406
     0.322515397  0.816219581  0.907716992
     0.822406549  0.683650217  0.842384703
     0.322381676  0.683615538  0.907633722
     0.822548600  0.816172725  0.842265845
     0.677573686  0.850409176  0.592368662
     0.177443584  0.982849258  0.657830641

  ion indices of the primitive-cell ions
   primitive index   ion index
                 1           1
                 2           2
                 3           3
                 4           4
                 5           5
                 6           6
                 7           7
                 8           8
                 9           9
                10          10
                11          11
                12          12
                13          13
                14          14
                15          15
                16          16
                17          17
                18          18
                19          19
                20          20
                21          21
                22          22
                23          23
                24          24
                25          25
                26          26
                27          27
                28          28
                29          29
                30          30
                31          31
                32          32
                33          33
                34          34
                35          35
                36          36
                37          37
                38          38
                39          39
                40          40
                41          41
                42          42
                43          43
                44          44
                45          45
                46          46
                47          47
                48          48
                49          49
                50          50
                51          51
                52          52
                53          53
                54          54
                55          55
                56          56
                57          57
                58          58
                59          59
                60          60
                61          61
                62          62
                63          63
                64          64
                65          65
                66          66
                67          67
                68          68
                69          69
                70          70
                71          71
                72          72
                73          73
                74          74
                75          75
                76          76
                77          77
                78          78
                79          79
                80          80
                81          81
                82          82
                83          83
                84          84
                85          85
                86          86
                87          87
                88          88
                89          89
                90          90
                91          91
                92          92
                93          93
                94          94
                95          95
                96          96
                97          97
                98          98
                99          99
               100         100
               101         101
               102         102
               103         103
               104         104
               105         105
               106         106
               107         107
               108         108
               109         109
               110         110
               111         111
               112         112
               113         113
               114         114
               115         115
               116         116
               117         117
               118         118
               119         119
               120         120
               121         121
               122         122
               123         123
               124         124
               125         125
               126         126
               127         127
               128         128
               129         129
               130         130
               131         131
               132         132
               133         133
               134         134
               135         135
               136         136
               137         137
               138         138
               139         139
               140         140
               141         141
               142         142
               143         143
               144         144
               145         145
               146         146
               147         147
               148         148
               149         149
               150         150
               151         151
               152         152
               153         153
               154         154
               155         155
               156         156
               157         157
               158         158
               159         159
               160         160
               161         161
               162         162
               163         163
               164         164
               165         165
               166         166
               167         167

----------------------------------------------------------------------------------------



 KPOINTS: KPOINTS created by Atomic Simulation Env

Automatic generation of k-mesh.
 Grid dimensions read from file:
 generate k-points for:    3    2    3

 Generating k-lattice:

  Cartesian coordinates                     Fractional coordinates (reciprocal lattice)
     0.032031878  0.000000000  0.000000000     0.333333333  0.000000000  0.000000000
     0.000000000  0.026800886  0.000000000     0.000000000  0.500000000  0.000000000
     0.000000000  0.000000000  0.033691133     0.000000000  0.000000000  0.333333333

  Length of vectors
     0.032031878  0.026800886  0.033691133

  Shift w.r.t. Gamma in fractional coordinates (k-lattice)
     0.000000000  0.000000000  0.000000000

 
 Subroutine IBZKPT returns following result:
 ===========================================
 
 Found     10 irreducible k-points:
 
 Following reciprocal coordinates:
            Coordinates               Weight
  0.000000  0.000000  0.000000      1.000000
  0.333333  0.000000  0.000000      2.000000
  0.000000  0.500000  0.000000      1.000000
  0.333333  0.500000  0.000000      2.000000
  0.000000  0.000000  0.333333      2.000000
  0.333333  0.000000  0.333333      2.000000
 -0.333333  0.000000  0.333333      2.000000
  0.000000  0.500000  0.333333      2.000000
  0.333333  0.500000  0.333333      2.000000
 -0.333333  0.500000  0.333333      2.000000
 
 Following cartesian coordinates:
            Coordinates               Weight
  0.000000  0.000000  0.000000      1.000000
  0.032032  0.000000  0.000000      2.000000
  0.000000  0.026801  0.000000      1.000000
  0.032032  0.026801  0.000000      2.000000
  0.000000  0.000000  0.033691      2.000000
  0.032032  0.000000  0.033691      2.000000
 -0.032032  0.000000  0.033691      2.000000
  0.000000  0.026801  0.033691      2.000000
  0.032032  0.026801  0.033691      2.000000
 -0.032032  0.026801  0.033691      2.000000
 


--------------------------------------------------------------------------------------------------------




 Dimension of arrays:
   k-points           NKPTS =     10   k-points in BZ     NKDIM =     10   number of bands    NBANDS=    726
   number of dos      NEDOS =    301   number of ions     NIONS =    167
   non local maximal  LDIM  =      6   non local SUM 2l+1 LMDIM =     18
   total plane-waves  NPLWV = 896000
   max r-space proj   IRMAX =   5954   max aug-charges    IRDMAX=  14393
   dimension x,y,z NGX =    80 NGY =  140 NGZ =   80
   dimension x,y,z NGXF=   160 NGYF=  280 NGZF=  160
   support grid    NGXF=   160 NGYF=  280 NGZF=  160
   ions per type =              23  24  24  96
   NGX,Y,Z   is equivalent  to a cutoff of  12.78, 12.48, 13.44 a.u.
   NGXF,Y,Z  is equivalent  to a cutoff of  25.56, 24.95, 26.88 a.u.

 SYSTEM =  unknown system                          
 POSCAR =  Na Fe P  O                              

 Startparameter for this run:
   NWRITE =      2    write-flag & timer
   PREC   = accura    normal or accurate (medium, high low for compatibility)
   ISTART =      0    job   : 0-new  1-cont  2-samecut
   ICHARG =      2    charge: 1-file 2-atom 10-const
   ISPIN  =      2    spin polarized calculation?
   LNONCOLLINEAR =      F non collinear calculations
   LSORBIT =      F    spin-orbit coupling
   INIWAV =      1    electr: 0-lowe 1-rand  2-diag
   LASPH  =      T    aspherical Exc in radial PAW
 Electronic Relaxation 1
   ENCUT  =  520.0 eV  38.22 Ry    6.18 a.u.  19.35 34.69 18.40*2*pi/ulx,y,z
   ENINI  =  520.0     initial cutoff
   ENAUG  =  605.4 eV  augmentation charge cutoff
   NELM   =    400;   NELMIN=  8; NELMDL= -5     # of ELM steps 
   EDIFF  = 0.1E-05   stopping-criterion for ELM
   LREAL  =      T    real-space projection
   NLSPLINE    = F    spline interpolate recip. space projectors
   LCOMPAT=      F    compatible to vasp.4.4
   GGA_COMPAT  = T    GGA compatible to vasp.4.4-vasp.4.6
   LMAXPAW     = -100 max onsite density
   LMAXMIX     =    4 max onsite mixed and CHGCAR
   VOSKOWN=      0    Vosko Wilk Nusair interpolation
   ROPT   =   -0.00025  -0.00025  -0.00025  -0.00025
 Ionic relaxation
   EDIFFG = -.2E-01   stopping-criterion for IOM
   NSW    =      1    number of steps for IOM
   NBLOCK =      1;   KBLOCK =      1    inner block; outer block 
   IBRION =      2    ionic relax: 0-MD 1-quasi-New 2-CG
   NFREE  =      1    steps in history (QN), initial steepest desc. (CG)
   ISIF   =      3    stress and relaxation
   IWAVPR =     11    prediction:  0-non 1-charg 2-wave 3-comb
   ISYM   =      0    0-nonsym 1-usesym 2-fastsym
   LCORR  =      T    Harris-Foulkes like correction to forces

   POTIM  = 0.5000    time-step for ionic-motion
   TEIN   =    0.0    initial temperature
   TEBEG  =    0.0;   TEEND  =   0.0 temperature during run
   SMASS  =  -3.00    Nose mass-parameter (am)
   estimated Nose-frequenzy (Omega)   =  0.10E-29 period in steps = 0.13E+47 mass=  -0.247E-26a.u.
   SCALEE = 1.0000    scale energy and forces
   NPACO  =    256;   APACO  = 10.0  distance and # of slots for P.C.
   PSTRESS=    0.0 pullay stress

  Mass of Ions in am
   POMASS =  22.99 55.85 30.97 16.00
  Ionic Valenz
   ZVAL   =   7.00 14.00  5.00  6.00
  Atomic Wigner-Seitz radii
   RWIGS  =  -1.00 -1.00 -1.00 -1.00
  virtual crystal weights 
   VCA    =   1.00  1.00  1.00  1.00
   NELECT =    1193.0000    total number of electrons
   NUPDOWN=      20.0000    fix difference up-down

 DOS related values:
   EMIN   =  10.00;   EMAX   =-10.00  energy-range for DOS
   EFERMI =   0.00;   METHOD = LEGACY      
   ISMEAR =     0;   SIGMA  =   0.05  broadening in eV -4-tet -1-fermi 0-gaus

 Electronic relaxation 2 (details)
   IALGO  =     58    algorithm
   LDIAG  =      T    sub-space diagonalisation (order eigenvalues)
   LSUBROT=      F    optimize rotation matrix (better conditioning)
   TURBO    =      0    0=normal 1=particle mesh
   IRESTART =      0    0=no restart 2=restart with 2 vectors
   NREBOOT  =      0    no. of reboots
   NMIN     =      0    reboot dimension
   EREF     =   0.00    reference energy to select bands
   IMIX   =      4    mixing-type and parameters
     AMIX     =   0.40;   BMIX     =  1.00
     AMIX_MAG =   1.60;   BMIX_MAG =  1.00
     AMIN     =   0.10
     WC   =   100.;   INIMIX=   1;  MIXPRE=   1;  MAXMIX= -45

 Intra band minimization:
   WEIMIN = 0.0010     energy-eigenvalue tresh-hold
   EBREAK =  0.34E-09  absolut break condition
   DEPER  =   0.30     relativ break condition  

   TIME   =   0.05     timestep for ELM

  volume/ion in A,a.u.               =      11.50        77.62
  Fermi-wavevector in a.u.,A,eV,Ry     =   1.396781  2.639533 26.544914  1.950996
  Thomas-Fermi vector in A             =   2.520101

 Write flags
   LWAVE        =      F    write WAVECAR
   LDOWNSAMPLE  =      F    k-point downsampling of WAVECAR
   LCHARG       =      T    write CHGCAR
   LVTOT        =      F    write LOCPOT, total local potential
   LVHAR        =      F    write LOCPOT, Hartree potential only
   LELF         =      F    write electronic localiz. function (ELF)
   LORBIT       =     12    0 simple, 1 ext, 2 COOP (PROOUT), +10 PAW based schemes


 Dipole corrections
   LMONO  =      F    monopole corrections only (constant potential shift)
   LDIPOL =      F    correct potential (dipole corrections)
   IDIPOL =      0    1-x, 2-y, 3-z, 4-all directions 
   EPSILON=  1.0000000 bulk dielectric constant

 LDA+U is selected, type is set to LDAUTYPE =  2
   angular momentum for each species LDAUL =    -1    2   -1   -1
   U (eV)           for each species LDAUU =   0.0  5.3  0.0  0.0
   J (eV)           for each species LDAUJ =   0.0  0.0  0.0  0.0
 Exchange correlation treatment:
   GGA     =    PE    GGA type
   LEXCH   =     8    internal setting for exchange type
   LIBXC   =     F    Libxc                    
   VOSKOWN =     0    Vosko Wilk Nusair interpolation
   LHFCALC =     F    Hartree Fock is set to
   LHFONE  =     F    Hartree Fock one center treatment
   AEXX    =    0.0000 exact exchange contribution

 Linear response parameters
   LEPSILON=     F    determine dielectric tensor
   LRPA    =     F    only Hartree local field effects (RPA)
   LNABLA  =     F    use nabla operator in PAW spheres
   LVEL    =     F    velocity operator in full k-point grid
   CSHIFT  =0.1000    complex shift for real part using Kramers Kronig
   OMEGAMAX=  -1.0    maximum frequency
   DEG_THRESHOLD= 0.2000000E-02 threshold for treating states as degnerate
   RTIME   =   -0.100 relaxation time in fs
  (WPLASMAI=    0.000 imaginary part of plasma frequency in eV, 0.658/RTIME)
   DFIELD  = 0.0000000 0.0000000 0.0000000 field for delta impulse in time

  Optional k-point grid parameters
   LKPOINTS_OPT  =     F    use optional k-point grid
   KPOINTS_OPT_MODE=     1    mode for optional k-point grid

 Orbital magnetization related:
   ORBITALMAG=     F  switch on orbital magnetization
   LCHIMAG   =     F  perturbation theory with respect to B field
   DQ        =  0.001000  dq finite difference perturbation B field
   LLRAUG    =     F  two centre corrections for induced B field
   LBONE     =     F  B-component reconstruction in AE one-centre
   LVGVCALC  =     T  calculate vGv susceptibility
   LVGVAPPL  =     F  apply vGv susceptibility instead of pGv for G=0

 Random number generation:
   RANDOM_GENERATOR = DEFAULT
   PCG_SEED         = not used


--------------------------------------------------------------------------------------------------------


 conjugate gradient relaxation of ions
 charge density and potential will be updated during run
 spin polarized calculation
 Conjugate gradient for all bands (Freysoldt, et al. PRB 79, 241103 (2009))
 preconditioned conjugated gradient                                        
 perform sub-space diagonalisation
    before iterative eigenvector-optimisation
 modified Broyden-mixing scheme, WC =      100.0
 initial mixing is a Kerker type mixing with AMIX =  0.4000 and BMIX =      1.0000
 Hartree-type preconditioning will be used
 using additional bands          129
 real space projection scheme for non local part
 use partial core corrections
 no Harris-corrections to forces 
 use gradient corrections 
 use of overlap-Matrix (Vanderbilt PP)
 Gauss-broadening in eV      SIGMA  =   0.05


--------------------------------------------------------------------------------------------------------


  energy-cutoff  :      520.00
  volume of cell :     1920.79
      direct lattice vectors                 reciprocal lattice vectors
    10.406300000  0.000000000  0.000000000     0.096095634  0.000000000  0.000000000
     0.000000000 18.656100000  0.000000000     0.000000000  0.053601771  0.000000000
     0.000000000  0.000000000  9.893800000     0.000000000  0.000000000  0.101073400

  length of vectors
    10.406300000 18.656100000  9.893800000     0.096095634  0.053601771  0.101073400



 k-points in units of 2pi/SCALE and weight: KPOINTS created by Atomic Simulation Env
   0.00000000  0.00000000  0.00000000       0.056
   0.03203188  0.00000000  0.00000000       0.111
   0.00000000  0.02680089  0.00000000       0.056
   0.03203188  0.02680089  0.00000000       0.111
   0.00000000  0.00000000  0.03369113       0.111
   0.03203188  0.00000000  0.03369113       0.111
  -0.03203188  0.00000000  0.03369113       0.111
   0.00000000  0.02680089  0.03369113       0.111
   0.03203188  0.02680089  0.03369113       0.111
  -0.03203188  0.02680089  0.03369113       0.111

 k-points in reciprocal lattice and weights: KPOINTS created by Atomic Simulation Env
   0.00000000  0.00000000  0.00000000       0.056
   0.33333333  0.00000000  0.00000000       0.111
   0.00000000  0.50000000  0.00000000       0.056
   0.33333333  0.50000000  0.00000000       0.111
   0.00000000  0.00000000  0.33333333       0.111
   0.33333333  0.00000000  0.33333333       0.111
  -0.33333333  0.00000000  0.33333333       0.111
   0.00000000  0.50000000  0.33333333       0.111
   0.33333333  0.50000000  0.33333333       0.111
  -0.33333333  0.50000000  0.33333333       0.111

 position of ions in fractional coordinates (direct lattice) 
   0.49997364  0.00004776  0.25003475
   0.99998239  0.16668391  0.99997358
   0.50003695  0.16667938  0.25000054
   0.99995534  0.00003139  0.99990664
   0.49997257  0.00005109  0.75003589
   0.99998266  0.16668543  0.49997138
   0.50002436  0.16661940  0.75003446
   0.99995539  0.00003135  0.49990652
   0.49997226  0.33338304  0.25003055
   0.99998263  0.50001829  0.99997103
   0.50003526  0.50001190  0.24998753
   0.99994986  0.33336550  0.99990584
   0.99998278  0.50001973  0.49996888
   0.50004764  0.50007316  0.74998914
   0.99995859  0.33336349  0.49990950
   0.49997379  0.66671402  0.25003454
   0.99998273  0.83335199  0.99997119
   0.50003650  0.83334584  0.24999841
   0.99995537  0.66669786  0.99990686
   0.49997517  0.66670931  0.75003334
   0.99998273  0.83335199  0.49997119
   0.50003650  0.83334588  0.74999840
   0.99995537  0.66669784  0.49990676
   0.78571371  0.25005079  0.25797755
   0.28582882  0.25001994  0.49202297
   0.21425163  0.08331378  0.24190341
   0.71434655  0.08333504  0.00813491
   0.78546557  0.25011179  0.75791713
   0.28577216  0.25000498  0.99203227
   0.21425100  0.08331382  0.74190432
   0.71434535  0.08333773  0.50813566
   0.78571437  0.58338539  0.25797302
   0.28581558  0.58334413  0.49198808
   0.21425075  0.41664797  0.24190009
   0.71433576  0.41665674  0.00809656
   0.78571386  0.58338510  0.75797183
   0.28581732  0.58333911  0.99198698
   0.21450820  0.41658532  0.74196122
   0.71439156  0.41667878  0.50807879
   0.78571393  0.91671802  0.25797239
   0.28581609  0.91667503  0.49198860
   0.21425204  0.74998076  0.24190401
   0.71434630  0.75000234  0.00813462
   0.78571387  0.91671804  0.75797239
   0.28581611  0.91667501  0.99198864
   0.21425213  0.74998074  0.74190401
   0.71434631  0.75000240  0.50813457
   0.60842994  0.25020137  0.02917845
   0.10855218  0.25018570  0.22151201
   0.39191874  0.08347921  0.47150276
   0.89198005  0.08345580  0.27917047
   0.60860494  0.25016416  0.52912524
   0.10854698  0.25018241  0.72151441
   0.39191985  0.08347993  0.97150368
   0.89197966  0.08345629  0.77917095
   0.60846852  0.58350616  0.02917789
   0.10855193  0.58351875  0.22151162
   0.39195582  0.41678274  0.47150913
   0.89197940  0.41678849  0.27917093
   0.60847011  0.58350876  0.52917930
   0.10855270  0.58351793  0.72151073
   0.39183999  0.41682677  0.97154313
   0.89198466  0.41679212  0.77916660
   0.60846905  0.91684133  0.02918049
   0.10855164  0.91685184  0.22151159
   0.39191995  0.75014636  0.47150371
   0.89198032  0.75012233  0.27917047
   0.60846912  0.91684131  0.52918042
   0.10855165  0.91685185  0.72151159
   0.39191987  0.75014639  0.97150381
   0.89198031  0.75012232  0.77917048
   0.61394278  0.24998579  0.37393178
   0.11387171  0.24997532  0.37556199
   0.38606985  0.08331766  0.12555818
   0.88598275  0.08334326  0.12382816
   0.96768385  0.24998917  0.16826701
   0.46777668  0.24999448  0.08164373
   0.03182127  0.08329286  0.33161781
   0.53194743  0.08329719  0.41828910
   0.67738034  0.31608516  0.09214178
   0.17763600  0.18370000  0.15763313
   0.32251828  0.14955551  0.40772141
   0.82240659  0.01698364  0.34238475
   0.32238183  0.01694896  0.40763322
   0.82254687  0.14950655  0.34226726
   0.67757510  0.18374327  0.09236200
   0.17744946  0.31618331  0.15782466
   0.61454831  0.24959081  0.87446086
   0.11389158  0.24998686  0.87556097
   0.38608288  0.08332316  0.62557543
   0.88598089  0.08334402  0.62382819
   0.96767217  0.24998831  0.66826755
   0.46755700  0.24961774  0.58088054
   0.03182039  0.08329320  0.83161799
   0.53193927  0.08330584  0.91826240
   0.67647991  0.31616572  0.59303985
   0.17763911  0.18370069  0.65763253
   0.32252271  0.14955418  0.90770883
   0.82240651  0.01698385  0.84238478
   0.32238181  0.01694853  0.90763326
   0.82254773  0.14950592  0.84226350
   0.67755937  0.18378989  0.59237885
   0.17732103  0.31617853  0.65778580
   0.61395111  0.58332015  0.37389726
   0.11386914  0.58330802  0.37556010
   0.38607530  0.41665769  0.12557377
   0.88598310  0.41667573  0.12382786
   0.96768371  0.58332249  0.16826682
   0.46776872  0.58331863  0.08168438
   0.03182121  0.41662555  0.33161779
   0.53193696  0.41662110  0.41833460
   0.67740317  0.64941792  0.09218765
   0.17763714  0.51703207  0.15763325
   0.32251631  0.48288343  0.40772971
   0.82239699  0.35031575  0.34239547
   0.32240813  0.35028522  0.40768865
   0.82254736  0.48283816  0.34226848
   0.67757055  0.51707382  0.09236445
   0.17744373  0.64951582  0.15783032
   0.61394035  0.58331606  0.87388318
   0.11387065  0.58330764  0.87556054
   0.38545325  0.41705497  0.62493850
   0.88595950  0.41666314  0.62382737
   0.96768427  0.58332222  0.66826666
   0.46777705  0.58331104  0.58170902
   0.03183148  0.41662623  0.83161802
   0.53211802  0.41702282  0.91913206
   0.67740287  0.64941843  0.59218755
   0.17763238  0.51703376  0.65763897
   0.32253113  0.48284755  0.90770323
   0.82252473  0.35031792  0.84243359
   0.32329014  0.35019679  0.90676414
   0.82254454  0.48283805  0.84226860
   0.67757005  0.51707494  0.59237285
   0.17744369  0.64951562  0.65783040
   0.61395129  0.91665244  0.37389760
   0.11386914  0.91664105  0.37556033
   0.38606945  0.74998457  0.12555764
   0.88598276  0.75000972  0.12382819
   0.96768359  0.91665527  0.16826680
   0.46777074  0.91665120  0.08168171
   0.03182144  0.74995951  0.33161779
   0.53194592  0.74996452  0.41829117
   0.67740286  0.98275150  0.09218735
   0.17763547  0.85036581  0.15763441
   0.32251541  0.81621958  0.40771698
   0.82240672  0.68365034  0.34238471
   0.32238208  0.68361570  0.40763330
   0.82254859  0.81617273  0.34226585
   0.67757368  0.85040918  0.09236867
   0.17744339  0.98284916  0.15783069
   0.61395172  0.91665218  0.87389805
   0.11386913  0.91664105  0.87556032
   0.38606903  0.74998482  0.62555716
   0.88598277  0.75000972  0.62382819
   0.96768359  0.91665526  0.66826680
   0.46777062  0.91665090  0.58168113
   0.03182143  0.74995952  0.83161779
   0.53194606  0.74996493  0.91829194
   0.67740313  0.98275153  0.59218715
   0.17763546  0.85036581  0.65763441
   0.32251540  0.81621958  0.90771699
   0.82240655  0.68365022  0.84238470
   0.32238168  0.68361554  0.90763372
   0.82254860  0.81617272  0.84226584
   0.67757369  0.85040918  0.59236866
   0.17744358  0.98284926  0.65783064

 position of ions in cartesian coordinates  (Angst):
   5.20287570  0.00089102  2.47379378
  10.40611676  3.10967166  9.89353861
   5.20353455  3.10958723  2.47345533
  10.40583525  0.00058568  9.89287629
   5.20286459  0.00095311  7.42070510
  10.40611955  3.10970014  4.94661685
   5.20340349  3.10846810  7.42069090
  10.40583573  0.00058479  4.94597516
   5.20286128  6.21962738  2.47375224
  10.40611922  9.32839127  9.89351336
   5.20351693  9.32827198  2.47332665
  10.40577818  6.21930013  9.89286837
  10.40612075  9.32841815  4.94659215
   5.20364580  9.32941493  7.42024253
  10.40586905  6.21926254  4.94600462
   5.20287725 12.43828342  2.47379169
  10.40612023 15.54709804  9.89351496
   5.20352985 15.54698337  2.47343422
  10.40583559 12.43798192  9.89287852
   5.20289161 12.43819552  7.42067990
  10.40612024 15.54709807  4.94661497
   5.20352986 15.54698403  7.42033412
  10.40583557 12.43798159  4.94597749
   8.17637262  4.66497259  2.55237828
   2.97442045  4.66439702  4.86797690
   2.22956677  1.55431027  2.39334398
   7.43370453  1.55470689  0.08048513
   8.17379039  4.66611048  7.49868051
   2.97383084  4.66411790  9.81496887
   2.22956018  1.55431101  7.34025299
   7.43369203  1.55475696  5.02739258
   8.17637943 10.88369626  2.55233348
   2.97428269 10.88292650  4.86763167
   2.22955758  7.77302614  2.39331115
   7.43359222  7.77318989  0.08010574
   8.17637419 10.88369085  7.49922167
   2.97430078 10.88283284  9.81452077
   2.23223669  7.77185730  7.34081596
   7.43417290  7.77360096  5.02682995
   8.17637492 17.10238309  2.55232723
   2.97428800 17.10158094  4.86763677
   2.22957099 13.99171598  2.39334991
   7.43370194 13.99211872  0.08048229
   8.17637421 17.10238333  7.49922719
   2.97428815 17.10158059  9.81453718
   2.22957189 13.99171572  7.34024993
   7.43370205 13.99211974  5.02738179
   6.33150446  4.66778177  0.28868577
   1.12962659  4.66748944  2.19159554
   4.07842400  1.55739646  4.66495397
   9.28221200  1.55695984  2.76205681
   6.33332557  4.66708765  5.23505934
   1.12957242  4.66742799  7.13851930
   4.07843551  1.55740994  9.61186309
   9.28220789  1.55696885  7.70896150
   6.33190593 10.88594930  0.28868019
   1.12962395 10.88618413  2.19159164
   4.07880985  7.77554052  4.66501707
   9.28220518  7.77564779  2.76206130
   6.33192254 10.88599784  5.23559414
   1.12963193 10.88616881  7.13848283
   4.07760449  7.77636191  9.61225340
   9.28225997  7.77571548  7.70891848
   6.33191145 17.10468358  0.28870591
   1.12962089 17.10487960  2.19159137
   4.07843655 13.99480549  4.66496339
   9.28221477 13.99435713  2.76205681
   6.33191223 17.10468308  5.23560527
   1.12962099 17.10487982  7.13849133
   4.07843574 13.99480598  9.61186437
   9.28221474 13.99435705  7.70895686
   6.38887273  4.66375980  3.69960627
   1.18498319  4.66356457  3.71573519
   4.01755872  1.55438266  1.24224754
   9.21980226  1.55486023  1.22513110
  10.07000842  4.66382295  1.66480015
   4.86782442  4.66392201  0.80776678
   0.33114172  1.55391993  3.28096031
   5.53560456  1.55400079  4.13846868
   7.04902304  5.89691641  0.91163232
   1.84853355  3.42712563  1.55959067
   3.35622198  2.79012250  4.03391404
   8.55820971  0.31684856  3.38748626
   3.35480209  0.31620153  4.03304153
   8.55966947  2.78920921  3.38632382
   7.05104976  3.42793278  0.91381119
   1.84659227  5.89874746  1.56148561
   6.39517408  4.65639112  8.65174087
   1.18518994  4.66377988  8.66262509
   4.01769425  1.55448522  6.18931814
   9.21978294  1.55487437  6.17203136
  10.06988687  4.66380688  6.61170545
   4.86553844  4.65689347  5.74711586
   0.33113255  1.55392626  8.22786207
   5.53551962  1.55416217  9.08510448
   7.03965290  5.89841929  5.86741765
   1.84856582  3.42713844  6.50648471
   3.35626813  2.79009766  8.98068964
   8.55820887  0.31685249  8.33438651
   3.35480184  0.31619348  8.97994195
   8.55967848  2.78919740  8.33318666
   7.05088607  3.42880255  5.86087791
   1.84525583  5.89865831  6.50800112
   6.38895944 10.88247906  3.69926469
   1.18495644 10.88225274  3.71571654
   4.01761539  7.77320753  1.24240174
   9.21980595  7.77354417  1.22512811
  10.07000703 10.88252269  1.66479825
   4.86774160 10.88245062  0.80816892
   0.33114110  7.77260799  3.28096011
   5.53549556  7.77252494  4.13891887
   7.04926061 12.11560559  0.91208617
   1.84854532  9.64580205  1.55959188
   3.35620143  9.00872151  4.03399624
   8.55810977  6.53552570  3.38759227
   3.35507570  6.53495611  4.03358995
   8.55967463  9.00787703  3.38633589
   7.05100244  9.64658094  0.91383535
   1.84653265 12.11743213  1.56154159
   6.38884743 10.88240276  8.64602539
   1.18497211 10.88224560  8.66262088
   4.01114212  7.78061930  6.18301650
   9.21956035  7.77330916  6.17202322
  10.07001282 10.88251764  6.61169673
   4.86782832 10.88230918  5.75531274
   0.33124791  7.77262060  8.22786238
   5.53737979  7.78001937  9.09370875
   7.04925754 12.11561510  5.85898523
   1.84849583  9.64583350  6.50654844
   3.35635575  9.00805218  8.98063427
   8.55943911  6.53556616  8.33486949
   3.36425414  6.53330625  8.97134302
   8.55964520  9.00787498  8.33323709
   7.05099718  9.64660174  5.86081850
   1.84653229 12.11742831  6.50844246
   6.38896134 17.10115954  3.69926805
   1.18495647 17.10094716  3.71571880
   4.01755451 13.99178710  1.24224220
   9.21980243 13.99225629  1.22513132
  10.07000570 17.10121239  1.66479803
   4.86776265 17.10113651  0.80814252
   0.33114344 13.99131967  3.28096007
   5.53558887 13.99141311  4.13848913
   7.04925740 18.33431025  0.91208320
   1.84852804 15.86450950  1.55960329
   3.35619215 15.22747410  4.03387029
   8.55821106 12.75424914  3.38748587
   3.35480459 12.75360278  4.03304235
   8.55968738 15.22660014  3.38630983
   7.05103500 15.86531871  0.91387713
   1.84652919 18.33613229  1.56154529
   6.38896578 17.10115469  8.64617254
   1.18495634 17.10094703  8.66261874
