<?xml version="1.0" encoding="ISO-8859-1"?>
<modeling>
 <generator>
  <i name="program" type="string">vasp </i>
  <i name="version" type="string">6.4.0  </i>
  <i name="subversion" type="string">14Feb23 (build Mar 11 2024 14:58:30) complex                          parallel </i>
  <i name="platform" type="string">epyc9004 </i>
  <i name="date" type="string">2024 12 12 </i>
  <i name="time" type="string">02:31:47 </i>
 </generator>
 <incar>
  <i type="int" name="ISTART">     0</i>
  <i type="string" name="PREC">accurate</i>
  <i type="string" name="ALGO">all</i>
  <i type="int" name="ISPIN">     2</i>
  <i type="int" name="NELM">   400</i>
  <i type="int" name="NELMIN">     8</i>
  <i type="int" name="IBRION">     2</i>
  <i name="EDIFF">      0.00000100</i>
  <i name="EDIFFG">     -0.02000000</i>
  <i type="int" name="NSW">     1</i>
  <i type="int" name="ISIF">     3</i>
  <i type="int" name="ISYM">     0</i>
  <i name="SYMPREC">      0.00000010</i>
  <i name="ENCUT">    520.00000000</i>
  <i name="NUPDOWN">     20.00000000</i>
  <i type="string" name="LREAL">auto</i>
  <i name="TIME">      0.05000000</i>
  <i type="int" name="ISMEAR">     0</i>
  <i name="SIGMA">      0.05000000</i>
  <i type="int" name="LMAXMIX">     4</i>
  <i type="logical" name="LWAVE"> F  </i>
  <i type="logical" name="LCHARG"> T  </i>
  <i type="int" name="LORBIT">    12</i>
  <i type="logical" name="LASPH"> T  </i>
  <i type="string" name="GGA">PE</i>
  <i type="logical" name="LDAU"> T  </i>
  <v type="int" name="LDAUL">    -1     2    -1    -1</v>
  <v name="LDAUU">      0.00000000      5.30000000      0.00000000      0.00000000</v>
  <v name="LDAUJ">      0.00000000      0.00000000      0.00000000      0.00000000</v>
 </incar>
 <primitive_cell>
  <structure name="primitive_cell" >
   <crystal>
    <varray name="basis" >
     <v>      10.40630000       0.00000000       0.00000000 </v>
     <v>       0.00000000      18.65610000       0.00000000 </v>
     <v>       0.00000000       0.00000000       9.89380000 </v>
    </varray>
    <i name="volume">   1920.79196292 </i>
    <varray name="rec_basis" >
     <v>       0.09609563       0.00000000       0.00000000 </v>
     <v>       0.00000000       0.05360177       0.00000000 </v>
     <v>       0.00000000       0.00000000       0.10107340 </v>
    </varray>
   </crystal>
   <varray name="positions" >
    <v>       0.49997364       0.00004776       0.25003475 </v>
    <v>       0.99998239       0.16668391       0.99997358 </v>
    <v>       0.50003695       0.16667938       0.25000054 </v>
    <v>       0.99995534       0.00003139       0.99990664 </v>
    <v>       0.49997257       0.00005109       0.75003589 </v>
    <v>       0.99998266       0.16668543       0.49997138 </v>
    <v>       0.50002436       0.16661940       0.75003446 </v>
    <v>       0.99995539       0.00003135       0.49990652 </v>
    <v>       0.49997226       0.33338304       0.25003055 </v>
    <v>       0.99998263       0.50001829       0.99997103 </v>
    <v>       0.50003526       0.50001190       0.24998753 </v>
    <v>       0.99994986       0.33336550       0.99990584 </v>
    <v>       0.99998278       0.50001973       0.49996888 </v>
    <v>       0.50004764       0.50007316       0.74998914 </v>
    <v>       0.99995859       0.33336349       0.49990950 </v>
    <v>       0.49997379       0.66671402       0.25003454 </v>
    <v>       0.99998273       0.83335199       0.99997119 </v>
    <v>       0.50003650       0.83334584       0.24999841 </v>
    <v>       0.99995537       0.66669786       0.99990686 </v>
    <v>       0.49997517       0.66670931       0.75003334 </v>
    <v>       0.99998273       0.83335199       0.49997119 </v>
    <v>       0.50003650       0.83334588       0.74999840 </v>
    <v>       0.99995537       0.66669784       0.49990676 </v>
    <v>       0.78571371       0.25005079       0.25797755 </v>
    <v>       0.28582882       0.25001994       0.49202297 </v>
    <v>       0.21425163       0.08331378       0.24190341 </v>
    <v>       0.71434655       0.08333504       0.00813491 </v>
    <v>       0.78546557       0.25011179       0.75791713 </v>
    <v>       0.28577216       0.25000498       0.99203227 </v>
    <v>       0.21425100       0.08331382       0.74190432 </v>
    <v>       0.71434535       0.08333773       0.50813566 </v>
    <v>       0.78571437       0.58338539       0.25797302 </v>
    <v>       0.28581558       0.58334413       0.49198808 </v>
    <v>       0.21425075       0.41664797       0.24190009 </v>
    <v>       0.71433576       0.41665674       0.00809656 </v>
    <v>       0.78571386       0.58338510       0.75797183 </v>
    <v>       0.28581732       0.58333911       0.99198698 </v>
    <v>       0.21450820       0.41658532       0.74196122 </v>
    <v>       0.71439156       0.41667878       0.50807879 </v>
    <v>       0.78571393       0.91671802       0.25797239 </v>
    <v>       0.28581609       0.91667503       0.49198860 </v>
    <v>       0.21425204       0.74998076       0.24190401 </v>
    <v>       0.71434630       0.75000234       0.00813462 </v>
    <v>       0.78571387       0.91671804       0.75797239 </v>
    <v>       0.28581611       0.91667501       0.99198864 </v>
    <v>       0.21425213       0.74998074       0.74190401 </v>
    <v>       0.71434631       0.75000240       0.50813457 </v>
    <v>       0.60842994       0.25020137       0.02917845 </v>
    <v>       0.10855218       0.25018570       0.22151201 </v>
    <v>       0.39191874       0.08347921       0.47150276 </v>
    <v>       0.89198005       0.08345580       0.27917047 </v>
    <v>       0.60860494       0.25016416       0.52912524 </v>
    <v>       0.10854698       0.25018241       0.72151441 </v>
    <v>       0.39191985       0.08347993       0.97150368 </v>
    <v>       0.89197966       0.08345629       0.77917095 </v>
    <v>       0.60846852       0.58350616       0.02917789 </v>
    <v>       0.10855193       0.58351875       0.22151162 </v>
    <v>       0.39195582       0.41678274       0.47150913 </v>
    <v>       0.89197940       0.41678849       0.27917093 </v>
    <v>       0.60847011       0.58350876       0.52917930 </v>
    <v>       0.10855270       0.58351793       0.72151073 </v>
    <v>       0.39183999       0.41682677       0.97154313 </v>
    <v>       0.89198466       0.41679212       0.77916660 </v>
    <v>       0.60846905       0.91684133       0.02918049 </v>
    <v>       0.10855164       0.91685184       0.22151159 </v>
    <v>       0.39191995       0.75014636       0.47150371 </v>
    <v>       0.89198032       0.75012233       0.27917047 </v>
    <v>       0.60846912       0.91684131       0.52918042 </v>
    <v>       0.10855165       0.91685185       0.72151159 </v>
    <v>       0.39191987       0.75014639       0.97150381 </v>
    <v>       0.89198031       0.75012232       0.77917048 </v>
    <v>       0.61394278       0.24998579       0.37393178 </v>
    <v>       0.11387171       0.24997532       0.37556199 </v>
    <v>       0.38606985       0.08331766       0.12555818 </v>
    <v>       0.88598275       0.08334326       0.12382816 </v>
    <v>       0.96768385       0.24998917       0.16826701 </v>
    <v>       0.46777668       0.24999448       0.08164373 </v>
    <v>       0.03182127       0.08329286       0.33161781 </v>
    <v>       0.53194743       0.08329719       0.41828910 </v>
    <v>       0.67738034       0.31608516       0.09214178 </v>
    <v>       0.17763600       0.18370000       0.15763313 </v>
    <v>       0.32251828       0.14955551       0.40772141 </v>
    <v>       0.82240659       0.01698364       0.34238475 </v>
    <v>       0.32238183       0.01694896       0.40763322 </v>
    <v>       0.82254687       0.14950655       0.34226726 </v>
    <v>       0.67757510       0.18374327       0.09236200 </v>
    <v>       0.17744946       0.31618331       0.15782466 </v>
    <v>       0.61454831       0.24959081       0.87446086 </v>
    <v>       0.11389158       0.24998686       0.87556097 </v>
    <v>       0.38608288       0.08332316       0.62557543 </v>
    <v>       0.88598089       0.08334402       0.62382819 </v>
    <v>       0.96767217       0.24998831       0.66826755 </v>
    <v>       0.46755700       0.24961774       0.58088054 </v>
    <v>       0.03182039       0.08329320       0.83161799 </v>
    <v>       0.53193927       0.08330584       0.91826240 </v>
    <v>       0.67647991       0.31616572       0.59303985 </v>
    <v>       0.17763911       0.18370069       0.65763253 </v>
    <v>       0.32252271       0.14955418       0.90770883 </v>
    <v>       0.82240651       0.01698385       0.84238478 </v>
    <v>       0.32238181       0.01694853       0.90763326 </v>
    <v>       0.82254773       0.14950592       0.84226350 </v>
    <v>       0.67755937       0.18378989       0.59237885 </v>
    <v>       0.17732103       0.31617853       0.65778580 </v>
    <v>       0.61395111       0.58332015       0.37389726 </v>
    <v>       0.11386914       0.58330802       0.37556010 </v>
    <v>       0.38607530       0.41665769       0.12557377 </v>
    <v>       0.88598310       0.41667573       0.12382786 </v>
    <v>       0.96768371       0.58332249       0.16826682 </v>
    <v>       0.46776872       0.58331863       0.08168438 </v>
    <v>       0.03182121       0.41662555       0.33161779 </v>
    <v>       0.53193696       0.41662110       0.41833460 </v>
    <v>       0.67740317       0.64941792       0.09218765 </v>
    <v>       0.17763714       0.51703207       0.15763325 </v>
    <v>       0.32251631       0.48288343       0.40772971 </v>
    <v>       0.82239699       0.35031575       0.34239547 </v>
    <v>       0.32240813       0.35028522       0.40768865 </v>
    <v>       0.82254736       0.48283816       0.34226848 </v>
    <v>       0.67757055       0.51707382       0.09236445 </v>
    <v>       0.17744373       0.64951582       0.15783032 </v>
    <v>       0.61394035       0.58331606       0.87388318 </v>
    <v>       0.11387065       0.58330764       0.87556054 </v>
    <v>       0.38545325       0.41705497       0.62493850 </v>
    <v>       0.88595950       0.41666314       0.62382737 </v>
    <v>       0.96768427       0.58332222       0.66826666 </v>
    <v>       0.46777705       0.58331104       0.58170902 </v>
    <v>       0.03183148       0.41662623       0.83161802 </v>
    <v>       0.53211802       0.41702282       0.91913206 </v>
    <v>       0.67740287       0.64941843       0.59218755 </v>
    <v>       0.17763238       0.51703376       0.65763897 </v>
    <v>       0.32253113       0.48284755       0.90770323 </v>
    <v>       0.82252473       0.35031792       0.84243359 </v>
    <v>       0.32329014       0.35019679       0.90676414 </v>
    <v>       0.82254454       0.48283805       0.84226860 </v>
    <v>       0.67757005       0.51707494       0.59237285 </v>
    <v>       0.17744369       0.64951562       0.65783040 </v>
    <v>       0.61395129       0.91665244       0.37389760 </v>
    <v>       0.11386914       0.91664105       0.37556033 </v>
    <v>       0.38606945       0.74998457       0.12555764 </v>
    <v>       0.88598276       0.75000972       0.12382819 </v>
    <v>       0.96768359       0.91665527       0.16826680 </v>
    <v>       0.46777074       0.91665120       0.08168171 </v>
    <v>       0.03182144       0.74995951       0.33161779 </v>
    <v>       0.53194592       0.74996452       0.41829117 </v>
    <v>       0.67740286       0.98275150       0.09218735 </v>
    <v>       0.17763547       0.85036581       0.15763441 </v>
    <v>       0.32251541       0.81621958       0.40771698 </v>
    <v>       0.82240672       0.68365034       0.34238471 </v>
    <v>       0.32238208       0.68361570       0.40763330 </v>
    <v>       0.82254859       0.81617273       0.34226585 </v>
    <v>       0.67757368       0.85040918       0.09236867 </v>
    <v>       0.17744339       0.98284916       0.15783069 </v>
    <v>       0.61395172       0.91665218       0.87389805 </v>
    <v>       0.11386913       0.91664105       0.87556032 </v>
    <v>       0.38606903       0.74998482       0.62555716 </v>
    <v>       0.88598277       0.75000972       0.62382819 </v>
    <v>       0.96768359       0.91665526       0.66826680 </v>
    <v>       0.46777062       0.91665090       0.58168113 </v>
    <v>       0.03182143       0.74995952       0.83161779 </v>
    <v>       0.53194606       0.74996493       0.91829194 </v>
    <v>       0.67740313       0.98275153       0.59218715 </v>
    <v>       0.17763546       0.85036581       0.65763441 </v>
    <v>       0.32251540       0.81621958       0.90771699 </v>
    <v>       0.82240655       0.68365022       0.84238470 </v>
    <v>       0.32238168       0.68361554       0.90763372 </v>
    <v>       0.82254860       0.81617272       0.84226584 </v>
    <v>       0.67757369       0.85040918       0.59236866 </v>
    <v>       0.17744358       0.98284926       0.65783064 </v>
   </varray>
  </structure>
  <varray name="primitive_index" >
   <v type="int" >        1 </v>
   <v type="int" >        2 </v>
   <v type="int" >        3 </v>
   <v type="int" >        4 </v>
   <v type="int" >        5 </v>
   <v type="int" >        6 </v>
   <v type="int" >        7 </v>
   <v type="int" >        8 </v>
   <v type="int" >        9 </v>
   <v type="int" >       10 </v>
   <v type="int" >       11 </v>
   <v type="int" >       12 </v>
   <v type="int" >       13 </v>
   <v type="int" >       14 </v>
   <v type="int" >       15 </v>
   <v type="int" >       16 </v>
   <v type="int" >       17 </v>
   <v type="int" >       18 </v>
   <v type="int" >       19 </v>
   <v type="int" >       20 </v>
   <v type="int" >       21 </v>
   <v type="int" >       22 </v>
   <v type="int" >       23 </v>
   <v type="int" >       24 </v>
   <v type="int" >       25 </v>
   <v type="int" >       26 </v>
   <v type="int" >       27 </v>
   <v type="int" >       28 </v>
   <v type="int" >       29 </v>
   <v type="int" >       30 </v>
   <v type="int" >       31 </v>
   <v type="int" >       32 </v>
   <v type="int" >       33 </v>
   <v type="int" >       34 </v>
   <v type="int" >       35 </v>
   <v type="int" >       36 </v>
   <v type="int" >       37 </v>
   <v type="int" >       38 </v>
   <v type="int" >       39 </v>
   <v type="int" >       40 </v>
   <v type="int" >       41 </v>
   <v type="int" >       42 </v>
   <v type="int" >       43 </v>
   <v type="int" >       44 </v>
   <v type="int" >       45 </v>
   <v type="int" >       46 </v>
   <v type="int" >       47 </v>
   <v type="int" >       48 </v>
   <v type="int" >       49 </v>
   <v type="int" >       50 </v>
   <v type="int" >       51 </v>
   <v type="int" >       52 </v>
   <v type="int" >       53 </v>
   <v type="int" >       54 </v>
   <v type="int" >       55 </v>
   <v type="int" >       56 </v>
   <v type="int" >       57 </v>
   <v type="int" >       58 </v>
   <v type="int" >       59 </v>
   <v type="int" >       60 </v>
   <v type="int" >       61 </v>
   <v type="int" >       62 </v>
   <v type="int" >       63 </v>
   <v type="int" >       64 </v>
   <v type="int" >       65 </v>
   <v type="int" >       66 </v>
   <v type="int" >       67 </v>
   <v type="int" >       68 </v>
   <v type="int" >       69 </v>
   <v type="int" >       70 </v>
   <v type="int" >       71 </v>
   <v type="int" >       72 </v>
   <v type="int" >       73 </v>
   <v type="int" >       74 </v>
   <v type="int" >       75 </v>
   <v type="int" >       76 </v>
   <v type="int" >       77 </v>
   <v type="int" >       78 </v>
   <v type="int" >       79 </v>
   <v type="int" >       80 </v>
   <v type="int" >       81 </v>
   <v type="int" >       82 </v>
   <v type="int" >       83 </v>
   <v type="int" >       84 </v>
   <v type="int" >       85 </v>
   <v type="int" >       86 </v>
   <v type="int" >       87 </v>
   <v type="int" >       88 </v>
   <v type="int" >       89 </v>
   <v type="int" >       90 </v>
   <v type="int" >       91 </v>
   <v type="int" >       92 </v>
   <v type="int" >       93 </v>
   <v type="int" >       94 </v>
   <v type="int" >       95 </v>
   <v type="int" >       96 </v>
   <v type="int" >       97 </v>
   <v type="int" >       98 </v>
   <v type="int" >       99 </v>
   <v type="int" >      100 </v>
   <v type="int" >      101 </v>
   <v type="int" >      102 </v>
   <v type="int" >      103 </v>
   <v type="int" >      104 </v>
   <v type="int" >      105 </v>
   <v type="int" >      106 </v>
   <v type="int" >      107 </v>
   <v type="int" >      108 </v>
   <v type="int" >      109 </v>
   <v type="int" >      110 </v>
   <v type="int" >      111 </v>
   <v type="int" >      112 </v>
   <v type="int" >      113 </v>
   <v type="int" >      114 </v>
   <v type="int" >      115 </v>
   <v type="int" >      116 </v>
   <v type="int" >      117 </v>
   <v type="int" >      118 </v>
   <v type="int" >      119 </v>
   <v type="int" >      120 </v>
   <v type="int" >      121 </v>
   <v type="int" >      122 </v>
   <v type="int" >      123 </v>
   <v type="int" >      124 </v>
   <v type="int" >      125 </v>
   <v type="int" >      126 </v>
   <v type="int" >      127 </v>
   <v type="int" >      128 </v>
   <v type="int" >      129 </v>
   <v type="int" >      130 </v>
   <v type="int" >      131 </v>
   <v type="int" >      132 </v>
   <v type="int" >      133 </v>
   <v type="int" >      134 </v>
   <v type="int" >      135 </v>
   <v type="int" >      136 </v>
   <v type="int" >      137 </v>
   <v type="int" >      138 </v>
   <v type="int" >      139 </v>
   <v type="int" >      140 </v>
   <v type="int" >      141 </v>
   <v type="int" >      142 </v>
   <v type="int" >      143 </v>
   <v type="int" >      144 </v>
   <v type="int" >      145 </v>
   <v type="int" >      146 </v>
   <v type="int" >      147 </v>
   <v type="int" >      148 </v>
   <v type="int" >      149 </v>
   <v type="int" >      150 </v>
   <v type="int" >      151 </v>
   <v type="int" >      152 </v>
   <v type="int" >      153 </v>
   <v type="int" >      154 </v>
   <v type="int" >      155 </v>
   <v type="int" >      156 </v>
   <v type="int" >      157 </v>
   <v type="int" >      158 </v>
   <v type="int" >      159 </v>
   <v type="int" >      160 </v>
   <v type="int" >      161 </v>
   <v type="int" >      162 </v>
   <v type="int" >      163 </v>
   <v type="int" >      164 </v>
   <v type="int" >      165 </v>
   <v type="int" >      166 </v>
   <v type="int" >      167 </v>
  </varray>
 </primitive_cell>
 <kpoints>
  <generation param="Gamma">
   <v type="int" name="divisions">       3        2        3 </v>
   <v name="usershift">      0.00000000       0.00000000       0.00000000 </v>
   <v name="genvec1">      0.33333333       0.00000000       0.00000000 </v>
   <v name="genvec2">      0.00000000       0.50000000       0.00000000 </v>
   <v name="genvec3">      0.00000000       0.00000000       0.33333333 </v>
   <v name="shift">      0.00000000       0.00000000       0.00000000 </v>
  </generation>
  <varray name="kpointlist" >
   <v>       0.00000000       0.00000000       0.00000000 </v>
   <v>       0.33333333       0.00000000       0.00000000 </v>
   <v>       0.00000000       0.50000000       0.00000000 </v>
   <v>       0.33333333       0.50000000       0.00000000 </v>
   <v>       0.00000000       0.00000000       0.33333333 </v>
   <v>       0.33333333       0.00000000       0.33333333 </v>
   <v>      -0.33333333       0.00000000       0.33333333 </v>
   <v>       0.00000000       0.50000000       0.33333333 </v>
   <v>       0.33333333       0.50000000       0.33333333 </v>
   <v>      -0.33333333       0.50000000       0.33333333 </v>
  </varray>
  <varray name="weights" >
   <v>       0.05555556 </v>
   <v>       0.11111111 </v>
   <v>       0.05555556 </v>
   <v>       0.11111111 </v>
   <v>       0.11111111 </v>
   <v>       0.11111111 </v>
   <v>       0.11111111 </v>
   <v>       0.11111111 </v>
   <v>       0.11111111 </v>
   <v>       0.11111111 </v>
  </varray>
 </kpoints>
 <parameters>
  <separator name="general" >
   <i type="string" name="SYSTEM">unknown system</i>
   <i type="logical" name="LCOMPAT"> F  </i>
  </separator>
  <separator name="electronic" >
   <i type="string" name="PREC">accura</i>
   <i name="ENMAX">    520.00000000</i>
   <i name="ENAUG">    605.39200000</i>
   <i name="EDIFF">      0.00000100</i>
   <i type="int" name="IALGO">    58</i>
   <i type="int" name="IWAVPR">    11</i>
   <i type="int" name="NBANDS">   726</i>
   <i type="int" name="NBANDSLOW">    -1</i>
   <i type="int" name="NBANDSHIGH">    -1</i>
   <i name="NELECT">   1193.00000000</i>
   <i type="int" name="TURBO">     0</i>
   <i type="int" name="IRESTART">     0</i>
   <i type="int" name="NREBOOT">     0</i>
   <i type="int" name="NMIN">     0</i>
   <i name="EREF">      0.00000000</i>
   <separator name="electronic smearing" >
    <i type="int" name="ISMEAR">     0</i>
    <i name="SIGMA">      0.05000000</i>
    <i name="KSPACING">      0.50000000</i>
    <i type="logical" name="KGAMMA"> T  </i>
    <i type="logical" name="KBLOWUP"> T  </i>
   </separator>
   <separator name="electronic projectors" >
    <i type="logical" name="LREAL"> T  </i>
    <v name="ROPT">     -0.00025000     -0.00025000     -0.00025000     -0.00025000</v>
    <i type="int" name="LMAXPAW">  -100</i>
    <i type="int" name="LMAXMIX">     4</i>
    <i type="logical" name="NLSPLINE"> F  </i>
   </separator>
   <separator name="electronic startup" >
    <i type="int" name="ISTART">     0</i>
    <i type="int" name="ICHARG">     2</i>
    <i type="int" name="INIWAV">     1</i>
   </separator>
   <separator name="electronic spin" >
    <i type="int" name="ISPIN">     2</i>
    <i type="logical" name="LNONCOLLINEAR"> F  </i>
    <v name="MAGMOM">      0.11976048      0.11976048      0.11976048      0.11976048      0.11976048      0.11976048      0.11976048      0.11976048      0.11976048      0.11976048      0.11976048      0.11976048      0.11976048      0.11976048      0.11976048      0.11976048      0.11976048      0.11976048      0.11976048      0.11976048
      0.11976048      0.11976048      0.11976048      0.11976048      0.11976048      0.11976048      0.11976048      0.11976048      0.11976048      0.11976048      0.11976048      0.11976048      0.11976048      0.11976048      0.11976048      0.11976048      0.11976048      0.11976048      0.11976048      0.11976048
      0.11976048      0.11976048      0.11976048      0.11976048      0.11976048      0.11976048      0.11976048      0.11976048      0.11976048      0.11976048      0.11976048      0.11976048      0.11976048      0.11976048      0.11976048      0.11976048      0.11976048      0.11976048      0.11976048      0.11976048
      0.11976048      0.11976048      0.11976048      0.11976048      0.11976048      0.11976048      0.11976048      0.11976048      0.11976048      0.11976048      0.11976048      0.11976048      0.11976048      0.11976048      0.11976048      0.11976048      0.11976048      0.11976048      0.11976048      0.11976048
      0.11976048      0.11976048      0.11976048      0.11976048      0.11976048      0.11976048      0.11976048      0.11976048      0.11976048      0.11976048      0.11976048      0.11976048      0.11976048      0.11976048      0.11976048      0.11976048      0.11976048      0.11976048      0.11976048      0.11976048
      0.11976048      0.11976048      0.11976048      0.11976048      0.11976048      0.11976048      0.11976048      0.11976048      0.11976048      0.11976048      0.11976048      0.11976048      0.11976048      0.11976048      0.11976048      0.11976048      0.11976048      0.11976048      0.11976048      0.11976048
      0.11976048      0.11976048      0.11976048      0.11976048      0.11976048      0.11976048      0.11976048      0.11976048      0.11976048      0.11976048      0.11976048      0.11976048      0.11976048      0.11976048      0.11976048      0.11976048      0.11976048      0.11976048      0.11976048      0.11976048
      0.11976048      0.11976048      0.11976048      0.11976048      0.11976048      0.11976048      0.11976048      0.11976048      0.11976048      0.11976048      0.11976048      0.11976048      0.11976048      0.11976048      0.11976048      0.11976048      0.11976048      0.11976048      0.11976048      0.11976048
      0.11976048      0.11976048      0.11976048      0.11976048      0.11976048      0.11976048      0.11976048</v>
    <i name="NUPDOWN">     20.00000000</i>
    <i type="logical" name="LSORBIT"> F  </i>
    <v name="SAXIS">      0.00000000      0.00000000      1.00000000</v>
    <i type="logical" name="LSPIRAL"> F  </i>
    <v name="QSPIRAL">      0.00000000      0.00000000      0.00000000</v>
    <i type="logical" name="LZEROZ"> F  </i>
   </separator>
   <separator name="electronic exchange-correlation" >
    <i type="logical" name="LASPH"> T  </i>
    <i type="logical" name="LMETAGGA"> F  </i>
   </separator>
   <separator name="electronic convergence" >
    <i type="int" name="NELM">   400</i>
    <i type="int" name="NELMDL">    -5</i>
    <i type="int" name="NELMIN">     8</i>
    <i name="ENINI">    520.00000000</i>
    <separator name="electronic convergence detail" >
     <i type="logical" name="LDIAG"> T  </i>
     <i type="logical" name="LSUBROT"> F  </i>
     <i name="WEIMIN">      0.00100000</i>
     <i name="EBREAK">      0.00000000</i>
     <i name="DEPER">      0.30000000</i>
     <i type="int" name="NRMM">     4</i>
     <i name="TIME">      0.05000000</i>
    </separator>
   </separator>
   <separator name="electronic mixer" >
    <i name="AMIX">      0.40000000</i>
    <i name="BMIX">      1.00000000</i>
    <i name="AMIN">      0.10000000</i>
    <i name="AMIX_MAG">      1.60000000</i>
    <i name="BMIX_MAG">      1.00000000</i>
    <separator name="electronic mixer details" >
     <i type="int" name="IMIX">     4</i>
     <i type="logical" name="MIXFIRST"> F  </i>
     <i type="int" name="MAXMIX">   -45</i>
     <i name="WC">    100.00000000</i>
     <i type="int" name="INIMIX">     1</i>
     <i type="int" name="MIXPRE">     1</i>
     <i type="int" name="MREMOVE">     5</i>
    </separator>
   </separator>
   <separator name="electronic dipolcorrection" >
    <i type="logical" name="LDIPOL"> F  </i>
    <i type="logical" name="LMONO"> F  </i>
    <i type="int" name="IDIPOL">     0</i>
    <i name="EPSILON">      1.00000000</i>
    <v name="DIPOL">   -100.00000000   -100.00000000   -100.00000000</v>
    <i name="EFIELD">      0.00000000</i>
   </separator>
  </separator>
  <separator name="grids" >
   <i type="int" name="NGX">    80</i>
   <i type="int" name="NGY">   140</i>
   <i type="int" name="NGZ">    80</i>
   <i type="int" name="NGXF">   160</i>
   <i type="int" name="NGYF">   280</i>
   <i type="int" name="NGZF">   160</i>
   <i type="logical" name="ADDGRID"> F  </i>
  </separator>
  <separator name="ionic" >
   <i type="int" name="NSW">     1</i>
   <i type="int" name="IBRION">     2</i>
   <i type="int" name="MDALGO">     0</i>
   <i type="int" name="ISIF">     3</i>
   <i name="PSTRESS">      0.00000000</i>
   <i name="EDIFFG">     -0.02000000</i>
   <i type="int" name="NFREE">     1</i>
   <i name="POTIM">      0.50000000</i>
   <i name="SMASS">     -3.00000000</i>
   <i name="SCALEE">      1.00000000</i>
  </separator>
  <separator name="ionic md" >
   <i name="TEBEG">      0.00010000</i>
   <i name="TEEND">      0.00010000</i>
   <i type="int" name="NBLOCK">     1</i>
   <i type="int" name="KBLOCK">     1</i>
   <i type="int" name="NPACO">   256</i>
   <i name="APACO">     10.00000000</i>
  </separator>
  <separator name="symmetry" >
   <i type="int" name="ISYM">     0</i>
   <i name="SYMPREC">      0.00000010</i>
  </separator>
  <separator name="dos" >
   <i type="int" name="LORBIT">    12</i>
   <v name="RWIGS">     -1.00000000     -1.00000000     -1.00000000     -1.00000000</v>
   <i type="int" name="NEDOS">   301</i>
   <i name="EMIN">     10.00000000</i>
   <i name="EMAX">    -10.00000000</i>
   <i name="EFERMI">      0.00000000</i>
  </separator>
  <separator name="writing" >
   <i type="int" name="NWRITE">     2</i>
   <i type="logical" name="LWAVE"> F  </i>
   <i type="logical" name="LDOWNSAMPLE"> F  </i>
   <i type="logical" name="LCHARG"> T  </i>
   <i type="logical" name="LPARD"> F  </i>
   <i type="logical" name="LVTOT"> F  </i>
   <i type="logical" name="LVHAR"> F  </i>
   <i type="logical" name="LELF"> F  </i>
   <i type="logical" name="LOPTICS"> F  </i>
   <v name="STM">      0.00000000      0.00000000      0.00000000      0.00000000      0.00000000      0.00000000      0.00000000</v>
  </separator>
  <separator name="performance" >
   <i type="int" name="NPAR">     2</i>
   <i type="int" name="NSIM">     4</i>
   <i type="int" name="NBLK">    -1</i>
   <i type="logical" name="LPLANE"> T  </i>
   <i type="logical" name="LSCALAPACK"> T  </i>
   <i type="logical" name="LSCAAWARE"> F  </i>
   <i type="logical" name="LSCALU"> F  </i>
   <i type="logical" name="LASYNC"> F  </i>
   <i type="logical" name="LORBITALREAL"> F  </i>
  </separator>
  <separator name="miscellaneous" >
   <i type="int" name="IDIOT">     3</i>
   <i type="int" name="PHON_NSTRUCT">    -1</i>
   <i type="logical" name="LMUSIC"> F  </i>
   <v name="POMASS">     22.99000000     55.84700000     30.97400000     16.00000000</v>
   <v name="DARWINR">      0.00000000      0.00000000      0.00000000      0.00000000</v>
   <v name="DARWINV">      1.00000000      1.00000000      1.00000000      1.00000000</v>
   <i type="logical" name="LCORR"> T  </i>
  </separator>
  <i type="logical" name="GGA_COMPAT"> T  </i>
  <i type="logical" name="LBERRY"> F  </i>
  <i type="int" name="ICORELEVEL">     0</i>
  <i type="logical" name="LDAU"> T  </i>
  <v type="int" name="LDAUTYPE">     2</v>
  <v type="int" name="LDAUL">    -1</v>
  <v name="LDAUU">      0.00000000</v>
  <v name="LDAUJ">      0.00000000</v>
  <i type="int" name="LDAUPRINT">     0</i>
  <i type="int" name="I_CONSTRAINED_M">     0</i>
  <separator name="electronic exchange-correlation" >
   <i type="string" name="GGA">PE</i>
   <i type="int" name="VOSKOWN">     0</i>
   <i type="logical" name="LHFCALC"> F  </i>
   <i type="string" name="PRECFOCK"></i>
   <i type="logical" name="LSYMGRAD"> F  </i>
   <i type="logical" name="LHFONE"> F  </i>
   <i type="logical" name="LRHFCALC"> F  </i>
   <i type="logical" name="LTHOMAS"> F  </i>
   <i type="logical" name="LMODELHF"> F  </i>
   <i type="logical" name="LFOCKACE"> F  </i>
   <i name="ENCUT4O">     -1.00000000</i>
   <i type="int" name="EXXOEP">     0</i>
   <i type="int" name="FOURORBIT">     0</i>
   <i name="AEXX">      0.00000000</i>
   <i name="HFALPHA">      0.00000000</i>
   <i name="MCALPHA">      0.00000000</i>
   <i name="ALDAX">      1.00000000</i>
   <i name="AGGAX">      1.00000000</i>
   <i name="ALDAC">      1.00000000</i>
   <i name="AGGAC">      1.00000000</i>
   <i type="int" name="NKREDX">     1</i>
   <i type="int" name="NKREDY">     1</i>
   <i type="int" name="NKREDZ">     1</i>
   <i type="logical" name="SHIFTRED"> F  </i>
   <i type="logical" name="ODDONLY"> F  </i>
   <i type="logical" name="EVENONLY"> F  </i>
   <i type="int" name="LMAXFOCK">     0</i>
   <i type="int" name="NMAXFOCKAE">     0</i>
   <i type="logical" name="LFOCKAEDFT"> F  </i>
   <i name="HFSCREEN">      0.00000000</i>
   <i name="HFSCREENC">      0.00000000</i>
   <i type="int" name="NBANDSGWLOW">     0</i>
  </separator>
  <separator name="vdW DFT" >
   <i type="logical" name="LUSE_VDW"> F  </i>
   <i type="int" name="IVDW_NL">     1</i>
   <i type="logical" name="LSPIN_VDW"> F  </i>
   <i name="Zab_VDW">     -0.84910000</i>
   <i name="PARAM1">      0.12340000</i>
   <i name="PARAM2">      1.00000000</i>
   <i name="PARAM3">      0.00000000</i>
  </separator>
  <separator name="model GW" >
   <i type="int" name="MODEL_GW">     0</i>
   <i name="MODEL_EPS0">      6.90104897</i>
   <i name="MODEL_ALPHA">      1.00000000</i>
  </separator>
  <separator name="linear response parameters" >
   <i type="logical" name="LEPSILON"> F  </i>
   <i type="logical" name="LRPA"> F  </i>
   <i type="logical" name="LNABLA"> F  </i>
   <i type="logical" name="LVEL"> F  </i>
   <i name="CSHIFT">      0.10000000</i>
   <i name="OMEGAMAX">     -1.00000000</i>
   <i name="DEG_THRESHOLD">      0.00200000</i>
   <i name="RTIME">     -0.10000000</i>
   <i name="WPLASMAI">      0.00000000</i>
   <v name="DFIELD">      0.00000000      0.00000000      0.00000000</v>
   <v name="WPLASMA">      0.00000000      0.00000000      0.00000000      0.00000000      0.00000000      0.00000000      0.00000000      0.00000000      0.00000000</v>
  </separator>
  <separator name="orbital magnetization" >
   <i type="logical" name="NUCIND"> F  </i>
   <v name="MAGPOS">      0.00000000      0.00000000      0.00000000</v>
   <i type="logical" name="LNICSALL"> T  </i>
   <i type="logical" name="ORBITALMAG"> F  </i>
   <i type="logical" name="LMAGBLOCH"> F  </i>
   <i type="logical" name="LCHIMAG"> F  </i>
   <i type="logical" name="LGAUGE"> T  </i>
   <i type="int" name="MAGATOM">     0</i>
   <v name="MAGDIPOL">      0.00000000      0.00000000      0.00000000</v>
   <v name="AVECCONST">      0.00000000      0.00000000      0.00000000</v>
  </separator>
  <separator name="response functions" >
   <i type="logical" name="LALL_IN_ONE"> F  </i>
   <i type="int" name="IALL_IN_ONE">    -1</i>
   <i type="int" name="NBANDS_WAVE">    -1</i>
   <i type="logical" name="LFINITE_TEMPERATURE"> F  </i>
   <i type="logical" name="LADDER"> F  </i>
   <i type="logical" name="LRPAFORCE"> F  </i>
   <i type="logical" name="LFXC"> F  </i>
   <i type="logical" name="LHARTREE"> T  </i>
   <i type="int" name="IBSE">     0</i>
   <v type="int" name="KPOINT">    -1     0     0     0</v>
   <i type="logical" name="LTCTC"> F  </i>
   <i type="logical" name="LTCTE"> F  </i>
   <i type="logical" name="LTETE"> F  </i>
   <i type="logical" name="LTRIPLET"> F  </i>
   <i type="logical" name="LFXCEPS"> F  </i>
   <i type="logical" name="LFXHEG"> F  </i>
   <i type="int" name="NATURALO">     2</i>
   <i type="logical" name="LHOLEGF"> F  </i>
   <i type="logical" name="L2ORDER"> F  </i>
   <i type="logical" name="LDMP1"> F  </i>
   <i type="logical" name="LMP2LT"> F  </i>
   <i type="logical" name="LSMP2LT"> F  </i>
   <i type="logical" name="LGWLF"> F  </i>
   <i name="ENCUTGW">     -1.60000002</i>
   <i name="ENCUTGWSOFT">     -1.60000002</i>
   <i name="ENCUTLF">     -1.00000000</i>
   <i type="logical" name="LESF_SPLINES"> F  </i>
   <i type="int" name="LMAXMP2">    -1</i>
   <i name="SCISSOR">      0.00000000</i>
   <i type="int" name="NOMEGA">     0</i>
   <i type="int" name="NOMEGAR">     0</i>
   <i type="int" name="NBANDSGW">    -1</i>
   <i type="int" name="NBANDSO">    -1</i>
   <i type="int" name="NBANDSV">    -1</i>
   <i type="int" name="NELMGW">     1</i>
   <i type="int" name="NELMHF">     1</i>
   <i type="int" name="DIM">     3</i>
   <i type="int" name="IESPILON">     4</i>
   <i type="int" name="ANTIRES">     0</i>
   <i name="OMEGAMAX">    -30.00000000</i>
   <i name="OMEGAMIN">    -30.00000000</i>
   <i name="OMEGATL">   -200.00000000</i>
   <i type="int" name="OMEGAGRID">     0</i>
   <i name="CSHIFT">     -0.10000000</i>
   <i type="logical" name="LSELFENERGY"> F  </i>
   <i type="logical" name="LSPECTRAL"> F  </i>
   <i type="logical" name="LSPECTRALGW"> F  </i>
   <i type="logical" name="LSINGLES"> F  </i>
   <i type="logical" name="LFERMIGW"> F  </i>
   <i type="logical" name="ODDONLYGW"> F  </i>
   <i type="logical" name="EVENONLYGW"> F  </i>
   <i type="int" name="NKREDLFX">     1</i>
   <i type="int" name="NKREDLFY">     1</i>
   <i type="int" name="NKREDLFZ">     1</i>
   <i type="int" name="MAXMEM">  2800</i>
   <i type="int" name="TELESCOPE">     0</i>
   <i type="int" name="NTAUPAR">    -1</i>
   <i type="int" name="NOMEGAPAR">    -1</i>
   <i name="DAMP_NEWTON">      0.80000001</i>
   <i name="LAMBDA">      1.00000000</i>
  </separator>
  <separator name="External order field" >
   <i name="OFIELD_KAPPA">      0.00000000</i>
   <v name="OFIELD_K">      0.00000000      0.00000000      0.00000000</v>
   <i name="OFIELD_Q6_NEAR">      0.00000000</i>
   <i name="OFIELD_Q6_FAR">      0.00000000</i>
   <i name="OFIELD_A">      0.00000000</i>
  </separator>
  <separator name="optional k-points parameters" >
   <i type="int" name="KPOINTS_OPT_MODE">     1</i>
   <i type="logical" name="LKPOINTS_OPT"> F  </i>
  </separator>
 </parameters>
 <atominfo>
  <atoms>     167 </atoms>
  <types>       4 </types>
  <array name="atoms" >
   <dimension dim="1">ion</dimension>
   <field type="string">element</field>
   <field type="int">atomtype</field>
   <set>
    <rc><c>Na</c><c>   1</c></rc>
    <rc><c>Na</c><c>   1</c></rc>
    <rc><c>Na</c><c>   1</c></rc>
    <rc><c>Na</c><c>   1</c></rc>
    <rc><c>Na</c><c>   1</c></rc>
    <rc><c>Na</c><c>   1</c></rc>
    <rc><c>Na</c><c>   1</c></rc>
    <rc><c>Na</c><c>   1</c></rc>
    <rc><c>Na</c><c>   1</c></rc>
    <rc><c>Na</c><c>   1</c></rc>
    <rc><c>Na</c><c>   1</c></rc>
    <rc><c>Na</c><c>   1</c></rc>
    <rc><c>Na</c><c>   1</c></rc>
    <rc><c>Na</c><c>   1</c></rc>
    <rc><c>Na</c><c>   1</c></rc>
    <rc><c>Na</c><c>   1</c></rc>
    <rc><c>Na</c><c>   1</c></rc>
    <rc><c>Na</c><c>   1</c></rc>
    <rc><c>Na</c><c>   1</c></rc>
    <rc><c>Na</c><c>   1</c></rc>
    <rc><c>Na</c><c>   1</c></rc>
    <rc><c>Na</c><c>   1</c></rc>
    <rc><c>Na</c><c>   1</c></rc>
    <rc><c>Fe</c><c>   2</c></rc>
    <rc><c>Fe</c><c>   2</c></rc>
    <rc><c>Fe</c><c>   2</c></rc>
    <rc><c>Fe</c><c>   2</c></rc>
    <rc><c>Fe</c><c>   2</c></rc>
    <rc><c>Fe</c><c>   2</c></rc>
    <rc><c>Fe</c><c>   2</c></rc>
    <rc><c>Fe</c><c>   2</c></rc>
    <rc><c>Fe</c><c>   2</c></rc>
    <rc><c>Fe</c><c>   2</c></rc>
    <rc><c>Fe</c><c>   2</c></rc>
    <rc><c>Fe</c><c>   2</c></rc>
    <rc><c>Fe</c><c>   2</c></rc>
    <rc><c>Fe</c><c>   2</c></rc>
    <rc><c>Fe</c><c>   2</c></rc>
    <rc><c>Fe</c><c>   2</c></rc>
    <rc><c>Fe</c><c>   2</c></rc>
    <rc><c>Fe</c><c>   2</c></rc>
    <rc><c>Fe</c><c>   2</c></rc>
    <rc><c>Fe</c><c>   2</c></rc>
    <rc><c>Fe</c><c>   2</c></rc>
    <rc><c>Fe</c><c>   2</c></rc>
    <rc><c>Fe</c><c>   2</c></rc>
    <rc><c>Fe</c><c>   2</c></rc>
    <rc><c>P </c><c>   3</c></rc>
    <rc><c>P </c><c>   3</c></rc>
    <rc><c>P </c><c>   3</c></rc>
    <rc><c>P </c><c>   3</c></rc>
    <rc><c>P </c><c>   3</c></rc>
    <rc><c>P </c><c>   3</c></rc>
    <rc><c>P </c><c>   3</c></rc>
    <rc><c>P </c><c>   3</c></rc>
    <rc><c>P </c><c>   3</c></rc>
    <rc><c>P </c><c>   3</c></rc>
    <rc><c>P </c><c>   3</c></rc>
    <rc><c>P </c><c>   3</c></rc>
    <rc><c>P </c><c>   3</c></rc>
    <rc><c>P </c><c>   3</c></rc>
    <rc><c>P </c><c>   3</c></rc>
    <rc><c>P </c><c>   3</c></rc>
    <rc><c>P </c><c>   3</c></rc>
    <rc><c>P </c><c>   3</c></rc>
    <rc><c>P </c><c>   3</c></rc>
    <rc><c>P </c><c>   3</c></rc>
    <rc><c>P </c><c>   3</c></rc>
    <rc><c>P </c><c>   3</c></rc>
    <rc><c>P </c><c>   3</c></rc>
    <rc><c>P </c><c>   3</c></rc>
    <rc><c>O </c><c>   4</c></rc>
    <rc><c>O </c><c>   4</c></rc>
    <rc><c>O </c><c>   4</c></rc>
    <rc><c>O </c><c>   4</c></rc>
    <rc><c>O </c><c>   4</c></rc>
    <rc><c>O </c><c>   4</c></rc>
    <rc><c>O </c><c>   4</c></rc>
    <rc><c>O </c><c>   4</c></rc>
    <rc><c>O </c><c>   4</c></rc>
    <rc><c>O </c><c>   4</c></rc>
    <rc><c>O </c><c>   4</c></rc>
    <rc><c>O </c><c>   4</c></rc>
    <rc><c>O </c><c>   4</c></rc>
    <rc><c>O </c><c>   4</c></rc>
    <rc><c>O </c><c>   4</c></rc>
    <rc><c>O </c><c>   4</c></rc>
    <rc><c>O </c><c>   4</c></rc>
    <rc><c>O </c><c>   4</c></rc>
    <rc><c>O </c><c>   4</c></rc>
    <rc><c>O </c><c>   4</c></rc>
    <rc><c>O </c><c>   4</c></rc>
    <rc><c>O </c><c>   4</c></rc>
    <rc><c>O </c><c>   4</c></rc>
    <rc><c>O </c><c>   4</c></rc>
    <rc><c>O </c><c>   4</c></rc>
    <rc><c>O </c><c>   4</c></rc>
    <rc><c>O </c><c>   4</c></rc>
    <rc><c>O </c><c>   4</c></rc>
    <rc><c>O </c><c>   4</c></rc>
    <rc><c>O </c><c>   4</c></rc>
    <rc><c>O </c><c>   4</c></rc>
    <rc><c>O </c><c>   4</c></rc>
    <rc><c>O </c><c>   4</c></rc>
    <rc><c>O </c><c>   4</c></rc>
    <rc><c>O </c><c>   4</c></rc>
    <rc><c>O </c><c>   4</c></rc>
    <rc><c>O </c><c>   4</c></rc>
    <rc><c>O </c><c>   4</c></rc>
    <rc><c>O </c><c>   4</c></rc>
    <rc><c>O </c><c>   4</c></rc>
    <rc><c>O </c><c>   4</c></rc>
    <rc><c>O </c><c>   4</c></rc>
    <rc><c>O </c><c>   4</c></rc>
    <rc><c>O </c><c>   4</c></rc>
    <rc><c>O </c><c>   4</c></rc>
    <rc><c>O </c><c>   4</c></rc>
    <rc><c>O </c><c>   4</c></rc>
    <rc><c>O </c><c>   4</c></rc>
    <rc><c>O </c><c>   4</c></rc>
    <rc><c>O </c><c>   4</c></rc>
    <rc><c>O </c><c>   4</c></rc>
    <rc><c>O </c><c>   4</c></rc>
    <rc><c>O </c><c>   4</c></rc>
    <rc><c>O </c><c>   4</c></rc>
    <rc><c>O </c><c>   4</c></rc>
    <rc><c>O </c><c>   4</c></rc>
    <rc><c>O </c><c>   4</c></rc>
    <rc><c>O </c><c>   4</c></rc>
    <rc><c>O </c><c>   4</c></rc>
    <rc><c>O </c><c>   4</c></rc>
    <rc><c>O </c><c>   4</c></rc>
    <rc><c>O </c><c>   4</c></rc>
    <rc><c>O </c><c>   4</c></rc>
    <rc><c>O </c><c>   4</c></rc>
    <rc><c>O </c><c>   4</c></rc>
    <rc><c>O </c><c>   4</c></rc>
    <rc><c>O </c><c>   4</c></rc>
    <rc><c>O </c><c>   4</c></rc>
    <rc><c>O </c><c>   4</c></rc>
    <rc><c>O </c><c>   4</c></rc>
    <rc><c>O </c><c>   4</c></rc>
    <rc><c>O </c><c>   4</c></rc>
    <rc><c>O </c><c>   4</c></rc>
    <rc><c>O </c><c>   4</c></rc>
    <rc><c>O </c><c>   4</c></rc>
    <rc><c>O </c><c>   4</c></rc>
    <rc><c>O </c><c>   4</c></rc>
    <rc><c>O </c><c>   4</c></rc>
    <rc><c>O </c><c>   4</c></rc>
    <rc><c>O </c><c>   4</c></rc>
    <rc><c>O </c><c>   4</c></rc>
    <rc><c>O </c><c>   4</c></rc>
    <rc><c>O </c><c>   4</c></rc>
    <rc><c>O </c><c>   4</c></rc>
    <rc><c>O </c><c>   4</c></rc>
    <rc><c>O </c><c>   4</c></rc>
    <rc><c>O </c><c>   4</c></rc>
    <rc><c>O </c><c>   4</c></rc>
    <rc><c>O </c><c>   4</c></rc>
    <rc><c>O </c><c>   4</c></rc>
    <rc><c>O </c><c>   4</c></rc>
    <rc><c>O </c><c>   4</c></rc>
    <rc><c>O </c><c>   4</c></rc>
    <rc><c>O </c><c>   4</c></rc>
    <rc><c>O </c><c>   4</c></rc>
    <rc><c>O </c><c>   4</c></rc>
   </set>
  </array>
  <array name="atomtypes" >
   <dimension dim="1">type</dimension>
   <field type="int">atomspertype</field>
   <field type="string">element</field>
   <field>mass</field>
   <field>valence</field>
   <field type="string">pseudopotential</field>
   <set>
    <rc><c>  23</c><c>Na</c><c>     22.99000000</c><c>      7.00000000</c><c>  PAW_PBE Na_pv 19Sep2006               </c></rc>
    <rc><c>  24</c><c>Fe</c><c>     55.84700000</c><c>     14.00000000</c><c>  PAW_PBE Fe_pv 02Aug2007               </c></rc>
    <rc><c>  24</c><c>P </c><c>     30.97400000</c><c>      5.00000000</c><c>  PAW_PBE P 06Sep2000                   </c></rc>
    <rc><c>  96</c><c>O </c><c>     16.00000000</c><c>      6.00000000</c><c>  PAW_PBE O 08Apr2002                   </c></rc>
   </set>
  </array>
 </atominfo>
 <structure name="initialpos" >
  <crystal>
   <varray name="basis" >
    <v>      10.40630000       0.00000000       0.00000000 </v>
    <v>       0.00000000      18.65610000       0.00000000 </v>
    <v>       0.00000000       0.00000000       9.89380000 </v>
   </varray>
   <i name="volume">   1920.79196292 </i>
   <varray name="rec_basis" >
    <v>       0.09609563       0.00000000       0.00000000 </v>
    <v>       0.00000000       0.05360177       0.00000000 </v>
    <v>       0.00000000       0.00000000       0.10107340 </v>
   </varray>
  </crystal>
  <varray name="positions" >
   <v>       0.49997364       0.00004776       0.25003475 </v>
   <v>       0.99998239       0.16668391       0.99997358 </v>
   <v>       0.50003695       0.16667938       0.25000054 </v>
   <v>       0.99995534       0.00003139       0.99990664 </v>
   <v>       0.49997257       0.00005109       0.75003589 </v>
   <v>       0.99998266       0.16668543       0.49997138 </v>
   <v>       0.50002436       0.16661940       0.75003446 </v>
   <v>       0.99995539       0.00003135       0.49990652 </v>
   <v>       0.49997226       0.33338304       0.25003055 </v>
   <v>       0.99998263       0.50001829       0.99997103 </v>
   <v>       0.50003526       0.50001190       0.24998753 </v>
   <v>       0.99994986       0.33336550       0.99990584 </v>
   <v>       0.99998278       0.50001973       0.49996888 </v>
   <v>       0.50004764       0.50007316       0.74998914 </v>
   <v>       0.99995859       0.33336349       0.49990950 </v>
   <v>       0.49997379       0.66671402       0.25003454 </v>
   <v>       0.99998273       0.83335199       0.99997119 </v>
   <v>       0.50003650       0.83334584       0.24999841 </v>
   <v>       0.99995537       0.66669786       0.99990686 </v>
   <v>       0.49997517       0.66670931       0.75003334 </v>
   <v>       0.99998273       0.83335199       0.49997119 </v>
   <v>       0.50003650       0.83334588       0.74999840 </v>
   <v>       0.99995537       0.66669784       0.49990676 </v>
   <v>       0.78571371       0.25005079       0.25797755 </v>
   <v>       0.28582882       0.25001994       0.49202297 </v>
   <v>       0.21425163       0.08331378       0.24190341 </v>
   <v>       0.71434655       0.08333504       0.00813491 </v>
   <v>       0.78546557       0.25011179       0.75791713 </v>
   <v>       0.28577216       0.25000498       0.99203227 </v>
   <v>       0.21425100       0.08331382       0.74190432 </v>
   <v>       0.71434535       0.08333773       0.50813566 </v>
   <v>       0.78571437       0.58338539       0.25797302 </v>
   <v>       0.28581558       0.58334413       0.49198808 </v>
   <v>       0.21425075       0.41664797       0.24190009 </v>
   <v>       0.71433576       0.41665674       0.00809656 </v>
   <v>       0.78571386       0.58338510       0.75797183 </v>
   <v>       0.28581732       0.58333911       0.99198698 </v>
   <v>       0.21450820       0.41658532       0.74196122 </v>
   <v>       0.71439156       0.41667878       0.50807879 </v>
   <v>       0.78571393       0.91671802       0.25797239 </v>
   <v>       0.28581609       0.91667503       0.49198860 </v>
   <v>       0.21425204       0.74998076       0.24190401 </v>
   <v>       0.71434630       0.75000234       0.00813462 </v>
   <v>       0.78571387       0.91671804       0.75797239 </v>
   <v>       0.28581611       0.91667501       0.99198864 </v>
   <v>       0.21425213       0.74998074       0.74190401 </v>
   <v>       0.71434631       0.75000240       0.50813457 </v>
   <v>       0.60842994       0.25020137       0.02917845 </v>
   <v>       0.10855218       0.25018570       0.22151201 </v>
   <v>       0.39191874       0.08347921       0.47150276 </v>
   <v>       0.89198005       0.08345580       0.27917047 </v>
   <v>       0.60860494       0.25016416       0.52912524 </v>
   <v>       0.10854698       0.25018241       0.72151441 </v>
   <v>       0.39191985       0.08347993       0.97150368 </v>
   <v>       0.89197966       0.08345629       0.77917095 </v>
   <v>       0.60846852       0.58350616       0.02917789 </v>
   <v>       0.10855193       0.58351875       0.22151162 </v>
   <v>       0.39195582       0.41678274       0.47150913 </v>
   <v>       0.89197940       0.41678849       0.27917093 </v>
   <v>       0.60847011       0.58350876       0.52917930 </v>
   <v>       0.10855270       0.58351793       0.72151073 </v>
   <v>       0.39183999       0.41682677       0.97154313 </v>
   <v>       0.89198466       0.41679212       0.77916660 </v>
   <v>       0.60846905       0.91684133       0.02918049 </v>
   <v>       0.10855164       0.91685184       0.22151159 </v>
   <v>       0.39191995       0.75014636       0.47150371 </v>
   <v>       0.89198032       0.75012233       0.27917047 </v>
   <v>       0.60846912       0.91684131       0.52918042 </v>
   <v>       0.10855165       0.91685185       0.72151159 </v>
   <v>       0.39191987       0.75014639       0.97150381 </v>
   <v>       0.89198031       0.75012232       0.77917048 </v>
   <v>       0.61394278       0.24998579       0.37393178 </v>
   <v>       0.11387171       0.24997532       0.37556199 </v>
   <v>       0.38606985       0.08331766       0.12555818 </v>
   <v>       0.88598275       0.08334326       0.12382816 </v>
   <v>       0.96768385       0.24998917       0.16826701 </v>
   <v>       0.46777668       0.24999448       0.08164373 </v>
   <v>       0.03182127       0.08329286       0.33161781 </v>
   <v>       0.53194743       0.08329719       0.41828910 </v>
   <v>       0.67738034       0.31608516       0.09214178 </v>
   <v>       0.17763600       0.18370000       0.15763313 </v>
   <v>       0.32251828       0.14955551       0.40772141 </v>
   <v>       0.82240659       0.01698364       0.34238475 </v>
   <v>       0.32238183       0.01694896       0.40763322 </v>
   <v>       0.82254687       0.14950655       0.34226726 </v>
   <v>       0.67757510       0.18374327       0.09236200 </v>
   <v>       0.17744946       0.31618331       0.15782466 </v>
   <v>       0.61454831       0.24959081       0.87446086 </v>
   <v>       0.11389158       0.24998686       0.87556097 </v>
   <v>       0.38608288       0.08332316       0.62557543 </v>
   <v>       0.88598089       0.08334402       0.62382819 </v>
   <v>       0.96767217       0.24998831       0.66826755 </v>
   <v>       0.46755700       0.24961774       0.58088054 </v>
   <v>       0.03182039       0.08329320       0.83161799 </v>
   <v>       0.53193927       0.08330584       0.91826240 </v>
   <v>       0.67647991       0.31616572       0.59303985 </v>
   <v>       0.17763911       0.18370069       0.65763253 </v>
   <v>       0.32252271       0.14955418       0.90770883 </v>
   <v>       0.82240651       0.01698385       0.84238478 </v>
   <v>       0.32238181       0.01694853       0.90763326 </v>
   <v>       0.82254773       0.14950592       0.84226350 </v>
   <v>       0.67755937       0.18378989       0.59237885 </v>
   <v>       0.17732103       0.31617853       0.65778580 </v>
   <v>       0.61395111       0.58332015       0.37389726 </v>
   <v>       0.11386914       0.58330802       0.37556010 </v>
   <v>       0.38607530       0.41665769       0.12557377 </v>
   <v>       0.88598310       0.41667573       0.12382786 </v>
   <v>       0.96768371       0.58332249       0.16826682 </v>
   <v>       0.46776872       0.58331863       0.08168438 </v>
   <v>       0.03182121       0.41662555       0.33161779 </v>
   <v>       0.53193696       0.41662110       0.41833460 </v>
   <v>       0.67740317       0.64941792       0.09218765 </v>
   <v>       0.17763714       0.51703207       0.15763325 </v>
   <v>       0.32251631       0.48288343       0.40772971 </v>
   <v>       0.82239699       0.35031575       0.34239547 </v>
   <v>       0.32240813       0.35028522       0.40768865 </v>
   <v>       0.82254736       0.48283816       0.34226848 </v>
   <v>       0.67757055       0.51707382       0.09236445 </v>
   <v>       0.17744373       0.64951582       0.15783032 </v>
   <v>       0.61394035       0.58331606       0.87388318 </v>
   <v>       0.11387065       0.58330764       0.87556054 </v>
   <v>       0.38545325       0.41705497       0.62493850 </v>
   <v>       0.88595950       0.41666314       0.62382737 </v>
   <v>       0.96768427       0.58332222       0.66826666 </v>
   <v>       0.46777705       0.58331104       0.58170902 </v>
   <v>       0.03183148       0.41662623       0.83161802 </v>
   <v>       0.53211802       0.41702282       0.91913206 </v>
   <v>       0.67740287       0.64941843       0.59218755 </v>
   <v>       0.17763238       0.51703376       0.65763897 </v>
   <v>       0.32253113       0.48284755       0.90770323 </v>
   <v>       0.82252473       0.35031792       0.84243359 </v>
   <v>       0.32329014       0.35019679       0.90676414 </v>
   <v>       0.82254454       0.48283805       0.84226860 </v>
   <v>       0.67757005       0.51707494       0.59237285 </v>
   <v>       0.17744369       0.64951562       0.65783040 </v>
   <v>       0.61395129       0.91665244       0.37389760 </v>
   <v>       0.11386914       0.91664105       0.37556033 </v>
   <v>       0.38606945       0.74998457       0.12555764 </v>
   <v>       0.88598276       0.75000972       0.12382819 </v>
   <v>       0.96768359       0.91665527       0.16826680 </v>
   <v>       0.46777074       0.91665120       0.08168171 </v>
   <v>       0.03182144       0.74995951       0.33161779 </v>
   <v>       0.53194592       0.74996452       0.41829117 </v>
   <v>       0.67740286       0.98275150       0.09218735 </v>
   <v>       0.17763547       0.85036581       0.15763441 </v>
   <v>       0.32251541       0.81621958       0.40771698 </v>
   <v>       0.82240672       0.68365034       0.34238471 </v>
   <v>       0.32238208       0.68361570       0.40763330 </v>
   <v>       0.82254859       0.81617273       0.34226585 </v>
   <v>       0.67757368       0.85040918       0.09236867 </v>
   <v>       0.17744339       0.98284916       0.15783069 </v>
   <v>       0.61395172       0.91665218       0.87389805 </v>
