 vasp.6.4.0 14Feb23 (build Mar 11 2024 14:58:30) complex                         
 executed on             epyc9004 date 2024.12.12  02:31:47
 running   16 mpi-ranks, on    1 nodes
 distrk:  each k-point on   16 cores,    1 groups
 distr:  one band on NCORE=   8 cores,    2 groups


--------------------------------------------------------------------------------------------------------


 INCAR:
   ENCUT = 520.000000
   SIGMA = 0.050000
   TIME = 0.050000
   NUPDOWN = 20.000000
   EDIFF = 1.00e-06
   EDIFFG = -2.00e-02
   SYMPREC = 1.00e-07
   ALGO = all
   GGA = PE
   PREC = accurate
   IBRION = 2
   ISIF = 3
   ISMEAR = 0
   ISPIN = 2
   ISTART = 0
   ISYM = 0
   LMAXMIX = 4
   LORBIT = 12
   NELM = 400
   NELMIN = 8
   NSW = 1
   NCORE = 8
   LASPH = .TRUE.
   LCHARG = .TRUE.
   LDAU = .TRUE.
   LWAVE = .FALSE.
   LREAL = auto
   LDAUL = -1 -1 -1 -1
   LDAUU = 0.000 0.000 0.000 0.000
   LDAUJ = 0.000 0.000 0.000 0.000

 POTCAR:    PAW_PBE Co 02Aug2007                  
 POTCAR:    PAW_PBE Na_pv 19Sep2006               
 POTCAR:    PAW_PBE O 08Apr2002                   
 POTCAR:    PAW_PBE P 06Sep2000                   
 -----------------------------------------------------------------------------
|                                                                             |
|           W    W    AA    RRRRR   N    N  II  N    N   GGGG   !!!           |
|           W    W   A  A   R    R  NN   N  II  NN   N  G    G  !!!           |
|           W    W  A    A  R    R  N N  N  II  N N  N  G       !!!           |
|           W WW W  AAAAAA  RRRRR   N  N N  II  N  N N  G  GGG   !            |
|           WW  WW  A    A  R   R   N   NN  II  N   NN  G    G                |
|           W    W  A    A  R    R  N    N  II  N    N   GGGG   !!!           |
|                                                                             |
|     You use a magnetic or noncollinear calculation, but did not specify     |
|     the initial magnetic moment with the MAGMOM tag. Note that a            |
|     default of 0.714 will be used for all atoms. This ferromagnetic         |
|     setup may break the symmetry of the crystal, in particular it may       |
|     rule out finding an antiferromagnetic solution. Thence, we              |
|     recommend setting the initial magnetic moment manually or verifying     |
|     carefully that this magnetic setup is desired.                          |
|                                                                             |
 -----------------------------------------------------------------------------

 POTCAR:    PAW_PBE Co 02Aug2007                  
   VRHFIN =Co: d8 s1                                                                                
   LEXCH  = PE                                                                                      
   EATOM  =   813.3670 eV,   59.7808 Ry                                                             
                                                                                                    
   TITEL  = PAW_PBE Co 02Aug2007                                                                    
   LULTRA =        F    use ultrasoft PP ?                                                          
   IUNSCR =        1    unscreen: 0-lin 1-nonlin 2-no                                               
   RPACOR =    2.000    partial core radius                                                         
   POMASS =   58.933; ZVAL   =    9.000    mass and valenz                                          
   RCORE  =    2.300    outmost cutoff radius                                                       
   RWIGS  =    2.460; RWIGS  =    1.302    wigner-seitz radius (au A)                               
   ENMAX  =  267.968; ENMIN  =  200.976 eV                                                          
   RCLOC  =    1.203    cutoff for local pot                                                        
   LCOR   =        T    correct aug charges                                                         
   LPAW   =        T    paw PP                                                                      
   EAUG   =  477.818                                                                                
   DEXC   =    0.000                                                                                
   RMAX   =    2.360    core radius for proj-oper                                                   
   RAUG   =    1.300    factor for augmentation sphere                                              
   RDEP   =    2.393    radius for radial grids                                                     
   RDEPT  =    1.864    core radius for aug-charge                                                  
                                                                                                    
   Atomic configuration                                                                             
    9 entries                                                                                       
     n  l   j            E        occ.                                                              
     1  0  0.50     -7587.6674   2.0000                                                             
     2  0  0.50      -893.6084   2.0000                                                             
     2  1  1.50      -764.5805   6.0000                                                             
     3  0  0.50       -97.5973   2.0000                                                             
     3  1  1.50       -60.9648   6.0000                                                             
     3  2  2.50        -4.2382   8.0000                                                             
     4  0  0.50        -4.3746   1.0000                                                             
     4  1  1.50        -4.0817   0.0000                                                             
     4  3  2.50        -1.3606   0.0000                                                             
   Description                                                                                      
     l       E           TYP  RCUT    TYP  RCUT                                                     
     2     -4.2382362     23  2.300                                                                 
     2     -5.5988188     23  2.300                                                                 
     0     -4.3745797     23  2.300                                                                 
     0      5.7660125     23  2.300                                                                 
     1     -2.7211652     23  2.300                                                                 
     1     16.9860234     23  2.300                                                                 
  local pseudopotential read in
  partial core-charges read in
  partial kinetic energy density read in
  atomic valenz-charges read in
  non local Contribution for L=           2  read in
    real space projection operators read in
  non local Contribution for L=           2  read in
    real space projection operators read in
  non local Contribution for L=           0  read in
    real space projection operators read in
  non local Contribution for L=           0  read in
    real space projection operators read in
  non local Contribution for L=           1  read in
    real space projection operators read in
  non local Contribution for L=           1  read in
    real space projection operators read in
    PAW grid and wavefunctions read in

   number of l-projection  operators is LMAX  =           6
   number of lm-projection operators is LMMAX =          18

 POTCAR:    PAW_PBE Na_pv 19Sep2006               
   VRHFIN =Na: p6s1                                                                                 
   LEXCH  = PE                                                                                      
   EATOM  =   766.0439 eV,   56.3026 Ry                                                             
                                                                                                    
   TITEL  = PAW_PBE Na_pv 19Sep2006                                                                 
   LULTRA =        F    use ultrasoft PP ?                                                          
   IUNSCR =        1    unscreen: 0-lin 1-nonlin 2-no                                               
   RPACOR =    1.800    partial core radius                                                         
   POMASS =   22.990; ZVAL   =    7.000    mass and valenz                                          
   RCORE  =    2.200    outmost cutoff radius                                                       
   RWIGS  =    2.200; RWIGS  =    1.164    wigner-seitz radius (au A)                               
   ENMAX  =  259.561; ENMIN  =  194.671 eV                                                          
   ICORE  =        2    local potential                                                             
   LCOR   =        T    correct aug charges                                                         
   LPAW   =        T    paw PP                                                                      
   EAUG   =  368.056                                                                                
   DEXC   =    0.000                                                                                
   RMAX   =    2.245    core radius for proj-oper                                                   
   RAUG   =    1.300    factor for augmentation sphere                                              
   RDEP   =    2.259    radius for radial grids                                                     
   RDEPT  =    1.738    core radius for aug-charge                                                  
                                                                                                    
   Atomic configuration                                                                             
    5 entries                                                                                       
     n  l   j            E        occ.                                                              
     1  0  0.50     -1033.6933   2.0000                                                             
     2  0  0.50       -56.7526   2.0000                                                             
     2  1  1.50       -28.6721   6.0000                                                             
     3  0  0.50        -2.7440   1.0000                                                             
     3  2  1.50        -1.3606   0.0000                                                             
   Description                                                                                      
     l       E           TYP  RCUT    TYP  RCUT                                                     
     1    -28.6720912     23  2.000                                                                 
     1      6.8029130     23  2.000                                                                 
     0     -2.7439560     23  2.200                                                                 
     0     34.0145650     23  2.200                                                                 
     2     -1.3605826     23  2.200                                                                 
  local pseudopotential read in
  partial core-charges read in
  partial kinetic energy density read in
  atomic valenz-charges read in
  non local Contribution for L=           1  read in
    real space projection operators read in
  non local Contribution for L=           1  read in
    real space projection operators read in
  non local Contribution for L=           0  read in
    real space projection operators read in
  non local Contribution for L=           0  read in
    real space projection operators read in
    PAW grid and wavefunctions read in

   number of l-projection  operators is LMAX  =           4
   number of lm-projection operators is LMMAX =           8

 POTCAR:    PAW_PBE O 08Apr2002                   
   VRHFIN =O: s2p4                                                                                  
   LEXCH  = PE                                                                                      
   EATOM  =   432.3788 eV,   31.7789 Ry                                                             
                                                                                                    
   TITEL  = PAW_PBE O 08Apr2002                                                                     
   LULTRA =        F    use ultrasoft PP ?                                                          
   IUNSCR =        1    unscreen: 0-lin 1-nonlin 2-no                                               
   RPACOR =    1.200    partial core radius                                                         
   POMASS =   16.000; ZVAL   =    6.000    mass and valenz                                          
   RCORE  =    1.520    outmost cutoff radius                                                       
   RWIGS  =    1.550; RWIGS  =    0.820    wigner-seitz radius (au A)                               
   ENMAX  =  400.000; ENMIN  =  300.000 eV                                                          
   ICORE  =        2    local potential                                                             
   LCOR   =        T    correct aug charges                                                         
   LPAW   =        T    paw PP                                                                      
   EAUG   =  605.392                                                                                
   DEXC   =    0.000                                                                                
   RMAX   =    1.553    core radius for proj-oper                                                   
   RAUG   =    1.300    factor for augmentation sphere                                              
   RDEP   =    1.550    radius for radial grids                                                     
   RDEPT  =    1.329    core radius for aug-charge                                                  
                                                                                                    
   Atomic configuration                                                                             
    4 entries                                                                                       
     n  l   j            E        occ.                                                              
     1  0  0.50      -514.6923   2.0000                                                             
     2  0  0.50       -23.9615   2.0000                                                             
     2  1  0.50        -9.0305   4.0000                                                             
     3  2  1.50        -9.5241   0.0000                                                             
   Description                                                                                      
     l       E           TYP  RCUT    TYP  RCUT                                                     
     0    -23.9615318     23  1.200                                                                 
     0     -9.5240782     23  1.200                                                                 
     1     -9.0304911     23  1.520                                                                 
     1      8.1634956     23  1.520                                                                 
     2     -9.5240782      7  1.500                                                                 
  local pseudopotential read in
  partial core-charges read in
  partial kinetic energy density read in
  kinetic energy density of atom read in
  atomic valenz-charges read in
  non local Contribution for L=           0  read in
    real space projection operators read in
  non local Contribution for L=           0  read in
    real space projection operators read in
  non local Contribution for L=           1  read in
    real space projection operators read in
  non local Contribution for L=           1  read in
    real space projection operators read in
    PAW grid and wavefunctions read in

   number of l-projection  operators is LMAX  =           4
   number of lm-projection operators is LMMAX =           8

 POTCAR:    PAW_PBE P 06Sep2000                   
   VRHFIN =P : s2p3                                                                                 
   LEXCH  = PE                                                                                      
   EATOM  =   176.0430 eV,   12.9388 Ry                                                             
                                                                                                    
   TITEL  = PAW_PBE P 06Sep2000                                                                     
   LULTRA =        F    use ultrasoft PP ?                                                          
   IUNSCR =        1    unscreen: 0-lin 1-nonlin 2-no                                               
   RPACOR =    1.500    partial core radius                                                         
   POMASS =   30.974; ZVAL   =    5.000    mass and valenz                                          
   RCORE  =    1.900    outmost cutoff radius                                                       
   RWIGS  =    2.330; RWIGS  =    1.233    wigner-seitz radius (au A)                               
   ENMAX  =  255.040; ENMIN  =  191.280 eV                                                          
   ICORE  =        2    local potential                                                             
   LCOR   =        T    correct aug charges                                                         
   LPAW   =        T    paw PP                                                                      
   EAUG   =  342.924                                                                                
   DEXC   =    0.000                                                                                
   RMAX   =    1.935    core radius for proj-oper                                                   
   RAUG   =    1.300    factor for augmentation sphere                                              
   RDEP   =    1.931    radius for radial grids                                                     
   RDEPT  =    1.794    core radius for aug-charge                                                  
                                                                                                    
   Atomic configuration                                                                             
    6 entries                                                                                       
     n  l   j            E        occ.                                                              
     1  0  0.50     -2084.0982   2.0000                                                             
     2  0  0.50      -173.9859   2.0000                                                             
     2  1  1.50      -124.4865   6.0000                                                             
     3  0  0.50       -13.9692   2.0000                                                             
     3  1  0.50        -5.5067   3.0000                                                             
     3  2  1.50        -5.4423   0.0000                                                             
   Description                                                                                      
     l       E           TYP  RCUT    TYP  RCUT                                                     
     0    -13.9691527     23  1.900                                                                 
     0    -11.7794650     23  1.900                                                                 
     1     -5.5066937     23  1.900                                                                 
     1     -0.2556953     23  1.900                                                                 
     2     -5.4423304     23  1.900                                                                 
  local pseudopotential read in
  partial core-charges read in
  partial kinetic energy density read in
  atomic valenz-charges read in
  non local Contribution for L=           0  read in
    real space projection operators read in
  non local Contribution for L=           0  read in
    real space projection operators read in
  non local Contribution for L=           1  read in
    real space projection operators read in
  non local Contribution for L=           1  read in
    real space projection operators read in
    PAW grid and wavefunctions read in

   number of l-projection  operators is LMAX  =           4
   number of lm-projection operators is LMMAX =           8

 Optimization of the real space projectors (new method)

 maximal supplied QI-value         = 16.25
 optimisation between [QCUT,QGAM] = [ 11.54, 23.24] = [ 37.28,151.24] Ry 
 Optimized for a Real-space Cutoff    1.45 Angstroem

   l    n(q)    QCUT    max X(q) W(low)/X(q) W(high)/X(q)  e(spline) 
   2      9    11.539    65.824    0.19E-03    0.47E-04    0.16E-06
   2      9    11.539    61.429    0.20E-03    0.48E-04    0.16E-06
   0     10    11.539    56.174    0.76E-04    0.45E-04    0.23E-06
   0     10    11.539    31.263    0.69E-04    0.41E-04    0.21E-06
   1     10    11.539    19.828    0.78E-04    0.14E-03    0.70E-07
   1     10    11.539    15.139    0.65E-04    0.12E-03    0.64E-07
 Optimization of the real space projectors (new method)

 maximal supplied QI-value         = 17.01
 optimisation between [QCUT,QGAM] = [ 11.57, 23.30] = [ 37.45,152.03] Ry 
 Optimized for a Real-space Cutoff    1.45 Angstroem

   l    n(q)    QCUT    max X(q) W(low)/X(q) W(high)/X(q)  e(spline) 
   1     10    11.565     4.940    0.87E-04    0.13E-03    0.13E-06
   1     10    11.565     6.253    0.13E-03    0.19E-03    0.20E-06
   0     10    11.565    37.438    0.53E-04    0.73E-05    0.79E-07
   0     10    11.565     9.606    0.27E-04    0.60E-05    0.56E-07
 Optimization of the real space projectors (new method)

 maximal supplied QI-value         = 24.76
 optimisation between [QCUT,QGAM] = [ 11.64, 23.27] = [ 37.91,151.63] Ry 
 Optimized for a Real-space Cutoff    1.14 Angstroem

   l    n(q)    QCUT    max X(q) W(low)/X(q) W(high)/X(q)  e(spline) 
   0      8    11.635    20.381    0.10E-03    0.33E-03    0.24E-06
   0      8    11.635    15.268    0.11E-03    0.35E-03    0.26E-06
   1      7    11.635     5.964    0.24E-03    0.31E-03    0.30E-06
   1      7    11.635     5.382    0.22E-03    0.25E-03    0.26E-06
 Optimization of the real space projectors (new method)

 maximal supplied QI-value         = 19.84
 optimisation between [QCUT,QGAM] = [ 11.51, 23.22] = [ 37.09,150.92] Ry 
 Optimized for a Real-space Cutoff    1.21 Angstroem

   l    n(q)    QCUT    max X(q) W(low)/X(q) W(high)/X(q)  e(spline) 
   0      8    11.508   160.924    0.96E-04    0.17E-03    0.52E-07
   0      8    11.508   130.086    0.95E-04    0.17E-03    0.51E-07
   1      8    11.508    74.434    0.16E-03    0.74E-04    0.91E-07
   1      8    11.508    49.120    0.16E-03    0.71E-04    0.89E-07
  PAW_PBE Co 02Aug2007                  :
 energy of atom  1       EATOM= -813.3670
 kinetic energy error for atom=    0.0028 (will be added to EATOM!!)
  PAW_PBE Na_pv 19Sep2006               :
 energy of atom  2       EATOM= -766.0439
 kinetic energy error for atom=    0.0019 (will be added to EATOM!!)
  PAW_PBE O 08Apr2002                   :
 energy of atom  3       EATOM= -432.3788
 kinetic energy error for atom=    0.0208 (will be added to EATOM!!)
  PAW_PBE P 06Sep2000                   :
 energy of atom  4       EATOM= -176.0430
 kinetic energy error for atom=    0.0011 (will be added to EATOM!!)


 POSCAR: Co Na O  P
  positions in cartesian coordinates
  No initial velocities read in
 exchange correlation table for  LEXCH =        8
   RHO(1)=    0.500       N(1)  =     2000
   RHO(2)=  100.500       N(2)  =     4000



--------------------------------------------------------------------------------------------------------


 ion  position               nearest neighbor table
   1  0.307  0.227  0.032-  13 1.81  24 2.43   9 2.49  17 2.51  18 2.54   6 2.75  28 2.78
   2  0.222  0.726  0.444-  23 1.81  18 1.90  10 1.96  17 2.16  14 2.39  25 2.94
   3  0.741  0.729  0.976-  20 1.52  21 1.54  11 2.09  27 2.33  22 2.39  15 2.39  19 2.45
   4  0.797  0.233  0.548-  16 1.87  19 1.96  12 2.05  21 2.44  27 2.79
   5  0.992  1.000  0.981-   9 2.12  14 2.21
   6  0.449  0.090  0.462-  13 1.56   8 2.54  28 2.62   1 2.75
   7  0.034  0.504  0.038-   9 1.86  23 2.08  11 2.22  25 2.65
   8  0.483  0.493  0.439-  13 1.78  10 1.84  12 2.30   6 2.54  28 2.57  26 2.77
   9  0.089  0.273  0.832-  25 1.81   7 1.86   5 2.12   1 2.49
  10  0.363  0.621  0.220-  26 1.44  24 1.79   8 1.84   2 1.96
  11  0.886  0.690  0.261-  27 1.66  20 1.85   3 2.09   7 2.22
  12  0.627  0.328  0.719-  28 1.84   4 2.05   8 2.30
  13  0.447  0.265  0.240-   6 1.56  28 1.60   8 1.78   1 1.81
  14  0.014  0.780  0.637-  27 1.78   5 2.21   2 2.39
  15  0.521  0.800  0.862-  26 1.35   3 2.39
  16  0.964  0.282  0.420-  25 1.52   4 1.87
  17  0.167  0.054  0.380-  25 1.70   2 2.16   1 2.51
  18  0.284  0.906  0.721-   2 1.90  26 2.22   1 2.54
  19  0.865  0.512  0.657-  27 1.03   4 1.96   3 2.45
  20  0.741  0.538  0.164-   3 1.52  11 1.85
  21  0.788  0.878  0.752-   3 1.54  27 1.72   4 2.44
  22  0.644  0.067  0.077-  28 1.41   3 2.39
  23  0.161  0.464  0.355-  25 1.32   2 1.81   7 2.08
  24  0.334  0.592  0.869-  26 1.31  10 1.79   1 2.43
  25  0.108  0.296  0.473-  23 1.32  16 1.52  17 1.70   9 1.81   7 2.65   2 2.94
  26  0.415  0.723  0.985-  24 1.31  15 1.35  10 1.44  18 2.22   8 2.77
  27  0.859  0.667  0.586-  19 1.03  11 1.66  21 1.72  14 1.78   3 2.33   4 2.79
  28  0.573  0.260  0.059-  22 1.41  13 1.60  12 1.84   8 2.57   6 2.62   1 2.78

 -----------------------------------------------------------------------------
|                                                                             |
|           W    W    AA    RRRRR   N    N  II  N    N   GGGG   !!!           |
|           W    W   A  A   R    R  NN   N  II  NN   N  G    G  !!!           |
|           W    W  A    A  R    R  N N  N  II  N N  N  G       !!!           |
|           W WW W  AAAAAA  RRRRR   N  N N  II  N  N N  G  GGG   !            |
|           WW  WW  A    A  R   R   N   NN  II  N   NN  G    G                |
|           W    W  A    A  R    R  N    N  II  N    N   GGGG   !!!           |
|                                                                             |
|     The distance between some ions is very small. Please check the          |
|     nearest-neighbor list in the OUTCAR file.                               |
|     I HOPE YOU KNOW WHAT YOU ARE DOING!                                     |
|                                                                             |
 -----------------------------------------------------------------------------


IMPORTANT INFORMATION: All symmetrisations will be switched off!
NOSYMM: (Re-)initialisation of all symmetry stuff for point group C_1.


----------------------------------------------------------------------------------------

                                     Primitive cell                                     

  volume of cell :     324.2596

  direct lattice vectors                    reciprocal lattice vectors
    10.384378016  0.000039928 -0.000024545     0.096298497  0.000000159  0.000000245
    -0.000010335  6.245442656 -0.000076858    -0.000000616  0.160116753 -0.000001885
    -0.000012718  0.000058852  4.999759852     0.000000473  0.000002461  0.200009606

  length of vectors
    10.384378016  6.245442656  4.999759852     0.096298497  0.160116753  0.200009606

  position of ions in fractional coordinates (direct lattice)
     0.306732795  0.226874577  0.031588107
     0.222046450  0.725526263  0.444083765
     0.741210898  0.729166982  0.975788508
     0.797251339  0.232800707  0.547922757
     0.991822746  0.999501262  0.981431991
     0.448654337  0.090074689  0.462331402
     0.033667019  0.503955399  0.037590655
     0.482556437  0.493116887  0.438818135
     0.088870981  0.273050364  0.831894929
     0.363282792  0.621366833  0.219791813
     0.886356316  0.690058228  0.260933350
     0.627360298  0.327969170  0.719356355
     0.446734201  0.265159056  0.240242439
     0.014129051  0.780236773  0.637435226
     0.521199374  0.799554160  0.862150262
     0.964362110  0.281646609  0.420211879
     0.167056496  0.054260050  0.379588534
     0.284248166  0.906162084  0.721337133
     0.864746882  0.512441710  0.656704074
     0.740862851  0.537605301  0.163558584
     0.788339437  0.878075992  0.751937016
     0.643598217  0.066736897  0.077410745
     0.160639178  0.463750959  0.354681895
     0.333594986  0.591743056  0.869401450
     0.107993373  0.296097464  0.472888535
     0.415357653  0.722658334  0.985394912
     0.858521068  0.666900371  0.585966373
     0.573100442  0.259879178  0.058619413

  ion indices of the primitive-cell ions
   primitive index   ion index
                 1           1
                 2           2
                 3           3
                 4           4
                 5           5
                 6           6
                 7           7
                 8           8
                 9           9
                10          10
                11          11
                12          12
                13          13
                14          14
                15          15
                16          16
                17          17
                18          18
                19          19
                20          20
                21          21
                22          22
                23          23
                24          24
                25          25
                26          26
                27          27
                28          28

----------------------------------------------------------------------------------------



 KPOINTS: KPOINTS created by Atomic Simulation Env

Automatic generation of k-mesh.
 Grid dimensions read from file:
 generate k-points for:    3    2    3

 Generating k-lattice:

  Cartesian coordinates                     Fractional coordinates (reciprocal lattice)
     0.032099499  0.000000053  0.000000082     0.333333333  0.000000000  0.000000000
    -0.000000308  0.080058377 -0.000000942    -0.000000000  0.500000000 -0.000000000
     0.000000158  0.000000820  0.066669869    -0.000000000 -0.000000000  0.333333333

  Length of vectors
     0.032099499  0.080058377  0.066669869

  Shift w.r.t. Gamma in fractional coordinates (k-lattice)
     0.000000000  0.000000000  0.000000000

 
 Subroutine IBZKPT returns following result:
 ===========================================
 
 Found     10 irreducible k-points:
 
 Following reciprocal coordinates:
            Coordinates               Weight
  0.000000  0.000000  0.000000      1.000000
  0.333333  0.000000  0.000000      2.000000
  0.000000  0.500000  0.000000      1.000000
  0.333333  0.500000  0.000000      2.000000
  0.000000  0.000000  0.333333      2.000000
  0.333333  0.000000  0.333333      2.000000
 -0.333333  0.000000  0.333333      2.000000
  0.000000  0.500000  0.333333      2.000000
  0.333333  0.500000  0.333333      2.000000
 -0.333333  0.500000  0.333333      2.000000
 
 Following cartesian coordinates:
            Coordinates               Weight
  0.000000  0.000000  0.000000      1.000000
  0.032099  0.000000  0.000000      2.000000
 -0.000000  0.080058 -0.000001      1.000000
  0.032099  0.080058 -0.000001      2.000000
  0.000000  0.000001  0.066670      2.000000
  0.032100  0.000001  0.066670      2.000000
 -0.032099  0.000001  0.066670      2.000000
 -0.000000  0.080059  0.066669      2.000000
  0.032099  0.080059  0.066669      2.000000
 -0.032100  0.080059  0.066669      2.000000
 


--------------------------------------------------------------------------------------------------------




 Dimension of arrays:
   k-points           NKPTS =     10   k-points in BZ     NKDIM =     10   number of bands    NBANDS=    118
   number of dos      NEDOS =    301   number of ions     NIONS =     28
   non local maximal  LDIM  =      6   non local SUM 2l+1 LMDIM =     18
   total plane-waves  NPLWV = 153600
   max r-space proj   IRMAX =   6046   max aug-charges    IRDMAX=  18879
   dimension x,y,z NGX =    80 NGY =   48 NGZ =   40
   dimension x,y,z NGXF=   160 NGYF=   96 NGZF=   80
   support grid    NGXF=   160 NGYF=   96 NGZF=   80
   ions per type =               4   4  16   4
   NGX,Y,Z   is equivalent  to a cutoff of  12.81, 12.78, 13.30 a.u.
   NGXF,Y,Z  is equivalent  to a cutoff of  25.61, 25.55, 26.60 a.u.

 SYSTEM =  unknown system                          
 POSCAR =  Co Na O  P                              

 Startparameter for this run:
   NWRITE =      2    write-flag & timer
   PREC   = accura    normal or accurate (medium, high low for compatibility)
   ISTART =      0    job   : 0-new  1-cont  2-samecut
   ICHARG =      2    charge: 1-file 2-atom 10-const
   ISPIN  =      2    spin polarized calculation?
   LNONCOLLINEAR =      F non collinear calculations
   LSORBIT =      F    spin-orbit coupling
   INIWAV =      1    electr: 0-lowe 1-rand  2-diag
   LASPH  =      T    aspherical Exc in radial PAW
 Electronic Relaxation 1
   ENCUT  =  520.0 eV  38.22 Ry    6.18 a.u.  19.31 11.61  9.30*2*pi/ulx,y,z
   ENINI  =  520.0     initial cutoff
   ENAUG  =  605.4 eV  augmentation charge cutoff
   NELM   =    400;   NELMIN=  8; NELMDL= -5     # of ELM steps 
   EDIFF  = 0.1E-05   stopping-criterion for ELM
   LREAL  =      T    real-space projection
   NLSPLINE    = F    spline interpolate recip. space projectors
   LCOMPAT=      F    compatible to vasp.4.4
   GGA_COMPAT  = T    GGA compatible to vasp.4.4-vasp.4.6
   LMAXPAW     = -100 max onsite density
   LMAXMIX     =    4 max onsite mixed and CHGCAR
   VOSKOWN=      0    Vosko Wilk Nusair interpolation
   ROPT   =   -0.00025  -0.00025  -0.00025  -0.00025
 Ionic relaxation
   EDIFFG = -.2E-01   stopping-criterion for IOM
   NSW    =      1    number of steps for IOM
   NBLOCK =      1;   KBLOCK =      1    inner block; outer block 
   IBRION =      2    ionic relax: 0-MD 1-quasi-New 2-CG
   NFREE  =      1    steps in history (QN), initial steepest desc. (CG)
   ISIF   =      3    stress and relaxation
   IWAVPR =     11    prediction:  0-non 1-charg 2-wave 3-comb
   ISYM   =      0    0-nonsym 1-usesym 2-fastsym
   LCORR  =      T    Harris-Foulkes like correction to forces

   POTIM  = 0.5000    time-step for ionic-motion
   TEIN   =    0.0    initial temperature
   TEBEG  =    0.0;   TEEND  =   0.0 temperature during run
   SMASS  =  -3.00    Nose mass-parameter (am)
   estimated Nose-frequenzy (Omega)   =  0.10E-29 period in steps = 0.13E+47 mass=  -0.246E-26a.u.
   SCALEE = 1.0000    scale energy and forces
   NPACO  =    256;   APACO  = 10.0  distance and # of slots for P.C.
   PSTRESS=    0.0 pullay stress

  Mass of Ions in am
   POMASS =  58.93 22.99 16.00 30.97
  Ionic Valenz
   ZVAL   =   9.00  7.00  6.00  5.00
  Atomic Wigner-Seitz radii
   RWIGS  =  -1.00 -1.00 -1.00 -1.00
  virtual crystal weights 
   VCA    =   1.00  1.00  1.00  1.00
   NELECT =     180.0000    total number of electrons
   NUPDOWN=      20.0000    fix difference up-down

 DOS related values:
   EMIN   =  10.00;   EMAX   =-10.00  energy-range for DOS
   EFERMI =   0.00;   METHOD = LEGACY      
   ISMEAR =     0;   SIGMA  =   0.05  broadening in eV -4-tet -1-fermi 0-gaus

 Electronic relaxation 2 (details)
   IALGO  =     58    algorithm
   LDIAG  =      T    sub-space diagonalisation (order eigenvalues)
   LSUBROT=      F    optimize rotation matrix (better conditioning)
   TURBO    =      0    0=normal 1=particle mesh
   IRESTART =      0    0=no restart 2=restart with 2 vectors
   NREBOOT  =      0    no. of reboots
   NMIN     =      0    reboot dimension
   EREF     =   0.00    reference energy to select bands
   IMIX   =      4    mixing-type and parameters
     AMIX     =   0.40;   BMIX     =  1.00
     AMIX_MAG =   1.60;   BMIX_MAG =  1.00
     AMIN     =   0.10
     WC   =   100.;   INIMIX=   1;  MIXPRE=   1;  MAXMIX= -45

 Intra band minimization:
   WEIMIN = 0.0010     energy-eigenvalue tresh-hold
   EBREAK =  0.21E-08  absolut break condition
   DEPER  =   0.30     relativ break condition  

   TIME   =   0.05     timestep for ELM

  volume/ion in A,a.u.               =      11.58        78.15
  Fermi-wavevector in a.u.,A,eV,Ry     =   1.345451  2.542535 24.629807  1.810240
  Thomas-Fermi vector in A             =   2.473363

 Write flags
   LWAVE        =      F    write WAVECAR
   LDOWNSAMPLE  =      F    k-point downsampling of WAVECAR
   LCHARG       =      T    write CHGCAR
   LVTOT        =      F    write LOCPOT, total local potential
   LVHAR        =      F    write LOCPOT, Hartree potential only
   LELF         =      F    write electronic localiz. function (ELF)
   LORBIT       =     12    0 simple, 1 ext, 2 COOP (PROOUT), +10 PAW based schemes


 Dipole corrections
   LMONO  =      F    monopole corrections only (constant potential shift)
   LDIPOL =      F    correct potential (dipole corrections)
   IDIPOL =      0    1-x, 2-y, 3-z, 4-all directions 
   EPSILON=  1.0000000 bulk dielectric constant

 LDA+U is selected, type is set to LDAUTYPE =  2
   angular momentum for each species LDAUL =    -1   -1   -1   -1
   U (eV)           for each species LDAUU =   0.0  0.0  0.0  0.0
   J (eV)           for each species LDAUJ =   0.0  0.0  0.0  0.0
 Exchange correlation treatment:
   GGA     =    PE    GGA type
   LEXCH   =     8    internal setting for exchange type
   LIBXC   =     F    Libxc                    
   VOSKOWN =     0    Vosko Wilk Nusair interpolation
   LHFCALC =     F    Hartree Fock is set to
   LHFONE  =     F    Hartree Fock one center treatment
   AEXX    =    0.0000 exact exchange contribution

 Linear response parameters
   LEPSILON=     F    determine dielectric tensor
   LRPA    =     F    only Hartree local field effects (RPA)
   LNABLA  =     F    use nabla operator in PAW spheres
   LVEL    =     F    velocity operator in full k-point grid
   CSHIFT  =0.1000    complex shift for real part using Kramers Kronig
   OMEGAMAX=  -1.0    maximum frequency
   DEG_THRESHOLD= 0.2000000E-02 threshold for treating states as degnerate
   RTIME   =   -0.100 relaxation time in fs
  (WPLASMAI=    0.000 imaginary part of plasma frequency in eV, 0.658/RTIME)
   DFIELD  = 0.0000000 0.0000000 0.0000000 field for delta impulse in time

  Optional k-point grid parameters
   LKPOINTS_OPT  =     F    use optional k-point grid
   KPOINTS_OPT_MODE=     1    mode for optional k-point grid

 Orbital magnetization related:
   ORBITALMAG=     F  switch on orbital magnetization
   LCHIMAG   =     F  perturbation theory with respect to B field
   DQ        =  0.001000  dq finite difference perturbation B field
   LLRAUG    =     F  two centre corrections for induced B field
   LBONE     =     F  B-component reconstruction in AE one-centre
   LVGVCALC  =     T  calculate vGv susceptibility
   LVGVAPPL  =     F  apply vGv susceptibility instead of pGv for G=0

 Random number generation:
   RANDOM_GENERATOR = DEFAULT
   PCG_SEED         = not used


--------------------------------------------------------------------------------------------------------


 conjugate gradient relaxation of ions
 charge density and potential will be updated during run
 spin polarized calculation
 Conjugate gradient for all bands (Freysoldt, et al. PRB 79, 241103 (2009))
 preconditioned conjugated gradient                                        
 perform sub-space diagonalisation
    before iterative eigenvector-optimisation
 modified Broyden-mixing scheme, WC =      100.0
 initial mixing is a Kerker type mixing with AMIX =  0.4000 and BMIX =      1.0000
 Hartree-type preconditioning will be used
 using additional bands           28
 real space projection scheme for non local part
 use partial core corrections
 no Harris-corrections to forces 
 use gradient corrections 
 use of overlap-Matrix (Vanderbilt PP)
 Gauss-broadening in eV      SIGMA  =   0.05


--------------------------------------------------------------------------------------------------------


  energy-cutoff  :      520.00
  volume of cell :      324.26
      direct lattice vectors                 reciprocal lattice vectors
    10.384378016  0.000039928 -0.000024545     0.096298497  0.000000159  0.000000245
    -0.000010335  6.245442656 -0.000076858    -0.000000616  0.160116753 -0.000001885
    -0.000012718  0.000058852  4.999759852     0.000000473  0.000002461  0.200009606

  length of vectors
    10.384378016  6.245442656  4.999759852     0.096298497  0.160116753  0.200009606



 k-points in units of 2pi/SCALE and weight: KPOINTS created by Atomic Simulation Env
   0.00000000  0.00000000  0.00000000       0.056
   0.03209950  0.00000005  0.00000008       0.111
  -0.00000031  0.08005838 -0.00000094       0.056
   0.03209919  0.08005843 -0.00000086       0.111
   0.00000016  0.00000082  0.06666987       0.111
   0.03209966  0.00000087  0.06666995       0.111
  -0.03209934  0.00000077  0.06666979       0.111
  -0.00000015  0.08005920  0.06666893       0.111
   0.03209935  0.08005925  0.06666901       0.111
  -0.03209965  0.08005914  0.06666884       0.111

 k-points in reciprocal lattice and weights: KPOINTS created by Atomic Simulation Env
   0.00000000  0.00000000  0.00000000       0.056
   0.33333333  0.00000000  0.00000000       0.111
   0.00000000  0.50000000  0.00000000       0.056
   0.33333333  0.50000000  0.00000000       0.111
   0.00000000  0.00000000  0.33333333       0.111
   0.33333333  0.00000000  0.33333333       0.111
  -0.33333333  0.00000000  0.33333333       0.111
   0.00000000  0.50000000  0.33333333       0.111
   0.33333333  0.50000000  0.33333333       0.111
  -0.33333333  0.50000000  0.33333333       0.111

 position of ions in fractional coordinates (direct lattice) 
   0.30673279  0.22687458  0.03158811
   0.22204645  0.72552626  0.44408376
   0.74121090  0.72916698  0.97578851
   0.79725134  0.23280071  0.54792276
   0.99182275  0.99950126  0.98143199
   0.44865434  0.09007469  0.46233140
   0.03366702  0.50395540  0.03759065
   0.48255644  0.49311689  0.43881813
   0.08887098  0.27305036  0.83189493
   0.36328279  0.62136683  0.21979181
   0.88635632  0.69005823  0.26093335
   0.62736030  0.32796917  0.71935636
   0.44673420  0.26515906  0.24024244
   0.01412905  0.78023677  0.63743523
   0.52119937  0.79955416  0.86215026
   0.96436211  0.28164661  0.42021188
   0.16705650  0.05426005  0.37958853
   0.28424817  0.90616208  0.72133713
   0.86474688  0.51244171  0.65670407
   0.74086285  0.53760530  0.16355858
   0.78833944  0.87807599  0.75193702
   0.64359822  0.06673690  0.07741075
   0.16063918  0.46375096  0.35468190
   0.33359499  0.59174306  0.86940145
   0.10799337  0.29609746  0.47288854
   0.41535765  0.72265833  0.98539491
   0.85852107  0.66690037  0.58596637
   0.57310044  0.25987918  0.05861941

 position of ions in cartesian coordinates  (Angst):
   3.18522655  1.41694627  0.15790798
   2.30580112  4.53126767  2.22025097
   7.69699421  4.55405760  4.87863397
   8.27894991  1.45400755  2.73944474
  10.29943951  6.24242518  4.90682310
   4.65898942  0.56260143  2.31152804
   0.34960536  3.14742810  0.18790469
   5.01103778  3.07977833  2.19393555
   0.92285646  1.70537290  4.15925170
   3.77245662  3.88073836  1.09884961
   9.20424860  4.30976984  1.30452930
   6.51473395  2.04838003  3.59656842
   4.63905102  1.65606766  1.20112316
   0.14670524  4.87296210  3.18696274
   5.41231210  4.99364121  4.31047002
  10.01429244  1.75907098  2.10091317
   1.73477241  0.33890704  1.89784324
   2.95172187  5.65943714  3.60643581
   8.97984487  3.20049849  3.28330205
   7.69339226  3.35762228  0.81769414
   8.18639608  5.48404899  3.75941767
   6.68336550  0.41683172  0.38701421
   1.66812864  2.89635731  1.77328471
   3.46415927  3.69576181  4.34674480
   1.12143493  1.84929187  2.36430371
   4.31321088  4.51339576  4.92667218
   8.91519296  4.16515679  2.92961882
   5.95128819  1.62308684  0.29304895



--------------------------------------------------------------------------------------------------------


 k-point   1 :   0.0000 0.0000 0.0000  plane waves:    8727
 k-point   2 :   0.3333 0.0000 0.0000  plane waves:    8700
 k-point   3 :   0.0000 0.5000 0.0000  plane waves:    8740
 k-point   4 :   0.3333 0.5000 0.0000  plane waves:    8758
 k-point   5 :   0.0000 0.0000 0.3333  plane waves:    8756
 k-point   6 :   0.3333 0.0000 0.3333  plane waves:    8765
 k-point   7 :  -0.3333 0.0000 0.3333  plane waves:    8765
 k-point   8 :   0.0000 0.5000 0.3333  plane waves:    8710
 k-point   9 :   0.3333 0.5000 0.3333  plane waves:    8710
 k-point  10 :  -0.3333 0.5000 0.3333  plane waves:    8710

 maximum and minimum number of plane-waves per node :      1120     1056

 maximum number of plane-waves:      8765
 maximum index in each direction: 
   IXMAX=   19   IYMAX=   11   IZMAX=    9
   IXMIN=  -19   IYMIN=  -12   IZMIN=   -9


 real space projection operators:
  total allocation   :       8439.97 KBytes
  max/ min on nodes  :       1078.17       1038.62


 parallel 3D FFT for wavefunctions:
    minimum data exchange during FFTs selected (reduces bandwidth)
 parallel 3D FFT for charge:
    minimum data exchange during FFTs selected (reduces bandwidth)


 total amount of memory used by VASP MPI-rank0   112176. kBytes
=======================================================================

   base      :      30000. kBytes
   nonlr-proj:       4177. kBytes
   fftplans  :       3209. kBytes
   grid      :       9077. kBytes
   one-center:        124. kBytes
   wavefun   :      65589. kBytes

     INWAV:  cpu time      0.0000: real time      0.0000
 Broyden mixing: mesh for mixing (old mesh)
   NGX = 39   NGY = 23   NGZ = 19
  (NGX  =160   NGY  = 96   NGZ  = 80)
  gives a total of  17043 points

 initial charge density was supplied:
 charge density of overlapping atoms calculated
 number of electron     180.0000000 magnetization      20.0000000
 keeping initial charge density in first step


--------------------------------------------------------------------------------------------------------


 Maximum index for non-local projection operator          770
 Maximum index for augmentation-charges         1258 (set IRDMAX)


--------------------------------------------------------------------------------------------------------


 First call to EWALD:  gamma=   0.258
 Maximum number of real-space cells 2x 3x 4
 Maximum number of reciprocal cells 4x 3x 2

    FEWALD:  cpu time      0.1999: real time      0.5305
