<?xml version="1.0" encoding="ISO-8859-1"?>
<modeling>
 <generator>
  <i name="program" type="string">vasp </i>
  <i name="version" type="string">6.4.0  </i>
  <i name="subversion" type="string">14Feb23 (build Mar 11 2024 14:58:30) complex                          parallel </i>
  <i name="platform" type="string">epyc9004 </i>
  <i name="date" type="string">2024 12 12 </i>
  <i name="time" type="string">02:31:47 </i>
 </generator>
 <incar>
  <i type="int" name="ISTART">     0</i>
  <i type="string" name="PREC">accurate</i>
  <i type="string" name="ALGO">all</i>
  <i type="int" name="ISPIN">     2</i>
  <i type="int" name="NELM">   400</i>
  <i type="int" name="NELMIN">     8</i>
  <i type="int" name="IBRION">     2</i>
  <i name="EDIFF">      0.00000100</i>
  <i name="EDIFFG">     -0.02000000</i>
  <i type="int" name="NSW">     1</i>
  <i type="int" name="ISIF">     3</i>
  <i type="int" name="ISYM">     0</i>
  <i name="SYMPREC">      0.00000010</i>
  <i name="ENCUT">    520.00000000</i>
  <i name="NUPDOWN">     20.00000000</i>
  <i type="string" name="LREAL">auto</i>
  <i name="TIME">      0.05000000</i>
  <i type="int" name="ISMEAR">     0</i>
  <i name="SIGMA">      0.05000000</i>
  <i type="int" name="LMAXMIX">     4</i>
  <i type="logical" name="LWAVE"> F  </i>
  <i type="logical" name="LCHARG"> T  </i>
  <i type="int" name="LORBIT">    12</i>
  <i type="logical" name="LASPH"> T  </i>
  <i type="string" name="GGA">PE</i>
  <i type="logical" name="LDAU"> T  </i>
  <v type="int" name="LDAUL">     2    -1    -1    -1</v>
  <v name="LDAUU">      5.30000000      0.00000000      0.00000000      0.00000000</v>
  <v name="LDAUJ">      0.00000000      0.00000000      0.00000000      0.00000000</v>
 </incar>
 <primitive_cell>
  <structure name="primitive_cell" >
   <crystal>
    <varray name="basis" >
     <v>      10.56702358      -0.00000651       0.00004755 </v>
     <v>      -0.00003685       6.29914088      -0.00006279 </v>
     <v>       0.00002239       0.00007252       5.01751522 </v>
    </varray>
    <i name="volume">    333.98171997 </i>
    <varray name="rec_basis" >
     <v>       0.09463403       0.00000055      -0.00000042 </v>
     <v>       0.00000010       0.15875181      -0.00000229 </v>
     <v>      -0.00000090       0.00000199       0.19930184 </v>
    </varray>
   </crystal>
   <varray name="positions" >
    <v>       0.30354097       0.23252260       0.01165727 </v>
    <v>       0.21823973       0.73122305       0.44618630 </v>
    <v>       0.73313269       0.73419261       0.99244523 </v>
    <v>       0.79609564       0.23607755       0.54796164 </v>
    <v>       0.99364088       0.00009044       0.98667145 </v>
    <v>       0.46210351       0.06570810       0.47285792 </v>
    <v>       0.02496874       0.50194601       0.02359342 </v>
    <v>       0.48670379       0.49662955       0.45464310 </v>
    <v>       0.09342982       0.26774282       0.80724728 </v>
    <v>       0.37160380       0.65641885       0.22334524 </v>
    <v>       0.88881742       0.70474232       0.26182517 </v>
    <v>       0.62239736       0.30796840       0.73205210 </v>
    <v>       0.45585116       0.25955438       0.22516684 </v>
    <v>       0.01814905       0.77226475       0.65090343 </v>
    <v>       0.52145235       0.78487505       0.85099834 </v>
    <v>       0.96632130       0.27492232       0.39341287 </v>
    <v>       0.16891764       0.05458424       0.36542946 </v>
    <v>       0.29314077       0.91949205       0.74988637 </v>
    <v>       0.85405954       0.52246465       0.66116993 </v>
    <v>       0.72302864       0.51125393       0.16548079 </v>
    <v>       0.79865780       0.89443066       0.73197945 </v>
    <v>       0.65089763       0.06631167       0.10220475 </v>
    <v>       0.16477364       0.45556154       0.35098317 </v>
    <v>       0.33334031       0.58264938       0.85996679 </v>
    <v>       0.10620510       0.28587090       0.46525133 </v>
    <v>       0.41086659       0.72928784       0.97301554 </v>
    <v>       0.86842304       0.69034929       0.57827942 </v>
    <v>       0.58060720       0.25678208       0.06033580 </v>
   </varray>
  </structure>
  <varray name="primitive_index" >
   <v type="int" >        1 </v>
   <v type="int" >        2 </v>
   <v type="int" >        3 </v>
   <v type="int" >        4 </v>
   <v type="int" >        5 </v>
   <v type="int" >        6 </v>
   <v type="int" >        7 </v>
   <v type="int" >        8 </v>
   <v type="int" >        9 </v>
   <v type="int" >       10 </v>
   <v type="int" >       11 </v>
   <v type="int" >       12 </v>
   <v type="int" >       13 </v>
   <v type="int" >       14 </v>
   <v type="int" >       15 </v>
   <v type="int" >       16 </v>
   <v type="int" >       17 </v>
   <v type="int" >       18 </v>
   <v type="int" >       19 </v>
   <v type="int" >       20 </v>
   <v type="int" >       21 </v>
   <v type="int" >       22 </v>
   <v type="int" >       23 </v>
   <v type="int" >       24 </v>
   <v type="int" >       25 </v>
   <v type="int" >       26 </v>
   <v type="int" >       27 </v>
   <v type="int" >       28 </v>
  </varray>
 </primitive_cell>
 <kpoints>
  <generation param="Gamma">
   <v type="int" name="divisions">       3        2        3 </v>
   <v name="usershift">      0.00000000       0.00000000       0.00000000 </v>
   <v name="genvec1">      0.33333333      -0.00000000       0.00000000 </v>
   <v name="genvec2">     -0.00000000       0.50000000      -0.00000000 </v>
   <v name="genvec3">     -0.00000000      -0.00000000       0.33333333 </v>
   <v name="shift">      0.00000000       0.00000000       0.00000000 </v>
  </generation>
  <varray name="kpointlist" >
   <v>       0.00000000       0.00000000       0.00000000 </v>
   <v>       0.33333333       0.00000000       0.00000000 </v>
   <v>       0.00000000       0.50000000       0.00000000 </v>
   <v>       0.33333333       0.50000000       0.00000000 </v>
   <v>       0.00000000       0.00000000       0.33333333 </v>
   <v>       0.33333333       0.00000000       0.33333333 </v>
   <v>      -0.33333333       0.00000000       0.33333333 </v>
   <v>       0.00000000       0.50000000       0.33333333 </v>
   <v>       0.33333333       0.50000000       0.33333333 </v>
   <v>      -0.33333333       0.50000000       0.33333333 </v>
  </varray>
  <varray name="weights" >
   <v>       0.05555556 </v>
   <v>       0.11111111 </v>
   <v>       0.05555556 </v>
   <v>       0.11111111 </v>
   <v>       0.11111111 </v>
   <v>       0.11111111 </v>
   <v>       0.11111111 </v>
   <v>       0.11111111 </v>
   <v>       0.11111111 </v>
   <v>       0.11111111 </v>
  </varray>
 </kpoints>
 <parameters>
  <separator name="general" >
   <i type="string" name="SYSTEM">unknown system</i>
   <i type="logical" name="LCOMPAT"> F  </i>
  </separator>
  <separator name="electronic" >
   <i type="string" name="PREC">accura</i>
   <i name="ENMAX">    520.00000000</i>
   <i name="ENAUG">    605.39200000</i>
   <i name="EDIFF">      0.00000100</i>
   <i type="int" name="IALGO">    58</i>
   <i type="int" name="IWAVPR">    11</i>
   <i type="int" name="NBANDS">   130</i>
   <i type="int" name="NBANDSLOW">    -1</i>
   <i type="int" name="NBANDSHIGH">    -1</i>
   <i name="NELECT">    200.00000000</i>
   <i type="int" name="TURBO">     0</i>
   <i type="int" name="IRESTART">     0</i>
   <i type="int" name="NREBOOT">     0</i>
   <i type="int" name="NMIN">     0</i>
   <i name="EREF">      0.00000000</i>
   <separator name="electronic smearing" >
    <i type="int" name="ISMEAR">     0</i>
    <i name="SIGMA">      0.05000000</i>
    <i name="KSPACING">      0.50000000</i>
    <i type="logical" name="KGAMMA"> T  </i>
    <i type="logical" name="KBLOWUP"> T  </i>
   </separator>
   <separator name="electronic projectors" >
    <i type="logical" name="LREAL"> T  </i>
    <v name="ROPT">     -0.00025000     -0.00025000     -0.00025000     -0.00025000</v>
    <i type="int" name="LMAXPAW">  -100</i>
    <i type="int" name="LMAXMIX">     4</i>
    <i type="logical" name="NLSPLINE"> F  </i>
   </separator>
   <separator name="electronic startup" >
    <i type="int" name="ISTART">     0</i>
    <i type="int" name="ICHARG">     2</i>
    <i type="int" name="INIWAV">     1</i>
   </separator>
   <separator name="electronic spin" >
    <i type="int" name="ISPIN">     2</i>
    <i type="logical" name="LNONCOLLINEAR"> F  </i>
    <v name="MAGMOM">      0.71428571      0.71428571      0.71428571      0.71428571      0.71428571      0.71428571      0.71428571      0.71428571      0.71428571      0.71428571      0.71428571      0.71428571      0.71428571      0.71428571      0.71428571      0.71428571      0.71428571      0.71428571      0.71428571      0.71428571
      0.71428571      0.71428571      0.71428571      0.71428571      0.71428571      0.71428571      0.71428571      0.71428571</v>
    <i name="NUPDOWN">     20.00000000</i>
    <i type="logical" name="LSORBIT"> F  </i>
    <v name="SAXIS">      0.00000000      0.00000000      1.00000000</v>
    <i type="logical" name="LSPIRAL"> F  </i>
    <v name="QSPIRAL">      0.00000000      0.00000000      0.00000000</v>
    <i type="logical" name="LZEROZ"> F  </i>
   </separator>
   <separator name="electronic exchange-correlation" >
    <i type="logical" name="LASPH"> T  </i>
    <i type="logical" name="LMETAGGA"> F  </i>
   </separator>
   <separator name="electronic convergence" >
    <i type="int" name="NELM">   400</i>
    <i type="int" name="NELMDL">    -5</i>
    <i type="int" name="NELMIN">     8</i>
    <i name="ENINI">    520.00000000</i>
    <separator name="electronic convergence detail" >
     <i type="logical" name="LDIAG"> T  </i>
     <i type="logical" name="LSUBROT"> F  </i>
     <i name="WEIMIN">      0.00100000</i>
     <i name="EBREAK">      0.00000000</i>
     <i name="DEPER">      0.30000000</i>
     <i type="int" name="NRMM">     4</i>
     <i name="TIME">      0.05000000</i>
    </separator>
   </separator>
   <separator name="electronic mixer" >
    <i name="AMIX">      0.40000000</i>
    <i name="BMIX">      1.00000000</i>
    <i name="AMIN">      0.10000000</i>
    <i name="AMIX_MAG">      1.60000000</i>
    <i name="BMIX_MAG">      1.00000000</i>
    <separator name="electronic mixer details" >
     <i type="int" name="IMIX">     4</i>
     <i type="logical" name="MIXFIRST"> F  </i>
     <i type="int" name="MAXMIX">   -45</i>
     <i name="WC">    100.00000000</i>
     <i type="int" name="INIMIX">     1</i>
     <i type="int" name="MIXPRE">     1</i>
     <i type="int" name="MREMOVE">     5</i>
    </separator>
   </separator>
   <separator name="electronic dipolcorrection" >
    <i type="logical" name="LDIPOL"> F  </i>
    <i type="logical" name="LMONO"> F  </i>
    <i type="int" name="IDIPOL">     0</i>
    <i name="EPSILON">      1.00000000</i>
    <v name="DIPOL">   -100.00000000   -100.00000000   -100.00000000</v>
    <i name="EFIELD">      0.00000000</i>
   </separator>
  </separator>
  <separator name="grids" >
   <i type="int" name="NGX">    80</i>
   <i type="int" name="NGY">    48</i>
   <i type="int" name="NGZ">    40</i>
   <i type="int" name="NGXF">   160</i>
   <i type="int" name="NGYF">    96</i>
   <i type="int" name="NGZF">    80</i>
   <i type="logical" name="ADDGRID"> F  </i>
  </separator>
  <separator name="ionic" >
   <i type="int" name="NSW">     1</i>
   <i type="int" name="IBRION">     2</i>
   <i type="int" name="MDALGO">     0</i>
   <i type="int" name="ISIF">     3</i>
   <i name="PSTRESS">      0.00000000</i>
   <i name="EDIFFG">     -0.02000000</i>
   <i type="int" name="NFREE">     1</i>
   <i name="POTIM">      0.50000000</i>
   <i name="SMASS">     -3.00000000</i>
   <i name="SCALEE">      1.00000000</i>
  </separator>
  <separator name="ionic md" >
   <i name="TEBEG">      0.00010000</i>
   <i name="TEEND">      0.00010000</i>
   <i type="int" name="NBLOCK">     1</i>
   <i type="int" name="KBLOCK">     1</i>
   <i type="int" name="NPACO">   256</i>
   <i name="APACO">     10.00000000</i>
  </separator>
  <separator name="symmetry" >
   <i type="int" name="ISYM">     0</i>
   <i name="SYMPREC">      0.00000010</i>
  </separator>
  <separator name="dos" >
   <i type="int" name="LORBIT">    12</i>
   <v name="RWIGS">     -1.00000000     -1.00000000     -1.00000000     -1.00000000</v>
   <i type="int" name="NEDOS">   301</i>
   <i name="EMIN">     10.00000000</i>
   <i name="EMAX">    -10.00000000</i>
   <i name="EFERMI">      0.00000000</i>
  </separator>
  <separator name="writing" >
   <i type="int" name="NWRITE">     2</i>
   <i type="logical" name="LWAVE"> F  </i>
   <i type="logical" name="LDOWNSAMPLE"> F  </i>
   <i type="logical" name="LCHARG"> T  </i>
   <i type="logical" name="LPARD"> F  </i>
   <i type="logical" name="LVTOT"> F  </i>
   <i type="logical" name="LVHAR"> F  </i>
   <i type="logical" name="LELF"> F  </i>
   <i type="logical" name="LOPTICS"> F  </i>
   <v name="STM">      0.00000000      0.00000000      0.00000000      0.00000000      0.00000000      0.00000000      0.00000000</v>
  </separator>
  <separator name="performance" >
   <i type="int" name="NPAR">     2</i>
   <i type="int" name="NSIM">     4</i>
   <i type="int" name="NBLK">    -1</i>
   <i type="logical" name="LPLANE"> T  </i>
   <i type="logical" name="LSCALAPACK"> T  </i>
   <i type="logical" name="LSCAAWARE"> F  </i>
   <i type="logical" name="LSCALU"> F  </i>
   <i type="logical" name="LASYNC"> F  </i>
   <i type="logical" name="LORBITALREAL"> F  </i>
  </separator>
  <separator name="miscellaneous" >
   <i type="int" name="IDIOT">     3</i>
   <i type="int" name="PHON_NSTRUCT">    -1</i>
   <i type="logical" name="LMUSIC"> F  </i>
   <v name="POMASS">     55.84700000     22.99000000     16.00000000     30.97400000</v>
   <v name="DARWINR">      0.00000000      0.00000000      0.00000000      0.00000000</v>
   <v name="DARWINV">      1.00000000      1.00000000      1.00000000      1.00000000</v>
   <i type="logical" name="LCORR"> T  </i>
  </separator>
  <i type="logical" name="GGA_COMPAT"> T  </i>
  <i type="logical" name="LBERRY"> F  </i>
  <i type="int" name="ICORELEVEL">     0</i>
  <i type="logical" name="LDAU"> T  </i>
  <v type="int" name="LDAUTYPE">     2</v>
  <v type="int" name="LDAUL">     2</v>
  <v name="LDAUU">      5.30000000</v>
  <v name="LDAUJ">      0.00000000</v>
  <i type="int" name="LDAUPRINT">     0</i>
  <i type="int" name="I_CONSTRAINED_M">     0</i>
  <separator name="electronic exchange-correlation" >
   <i type="string" name="GGA">PE</i>
   <i type="int" name="VOSKOWN">     0</i>
   <i type="logical" name="LHFCALC"> F  </i>
   <i type="string" name="PRECFOCK"></i>
   <i type="logical" name="LSYMGRAD"> F  </i>
   <i type="logical" name="LHFONE"> F  </i>
   <i type="logical" name="LRHFCALC"> F  </i>
   <i type="logical" name="LTHOMAS"> F  </i>
   <i type="logical" name="LMODELHF"> F  </i>
   <i type="logical" name="LFOCKACE"> F  </i>
   <i name="ENCUT4O">     -1.00000000</i>
   <i type="int" name="EXXOEP">     0</i>
   <i type="int" name="FOURORBIT">     0</i>
   <i name="AEXX">      0.00000000</i>
   <i name="HFALPHA">      0.00000000</i>
   <i name="MCALPHA">      0.00000000</i>
   <i name="ALDAX">      1.00000000</i>
   <i name="AGGAX">      1.00000000</i>
   <i name="ALDAC">      1.00000000</i>
   <i name="AGGAC">      1.00000000</i>
   <i type="int" name="NKREDX">     1</i>
   <i type="int" name="NKREDY">     1</i>
   <i type="int" name="NKREDZ">     1</i>
   <i type="logical" name="SHIFTRED"> F  </i>
   <i type="logical" name="ODDONLY"> F  </i>
   <i type="logical" name="EVENONLY"> F  </i>
   <i type="int" name="LMAXFOCK">     0</i>
   <i type="int" name="NMAXFOCKAE">     0</i>
   <i type="logical" name="LFOCKAEDFT"> F  </i>
   <i name="HFSCREEN">      0.00000000</i>
   <i name="HFSCREENC">      0.00000000</i>
   <i type="int" name="NBANDSGWLOW">     0</i>
  </separator>
  <separator name="vdW DFT" >
   <i type="logical" name="LUSE_VDW"> F  </i>
   <i type="int" name="IVDW_NL">     1</i>
   <i type="logical" name="LSPIN_VDW"> F  </i>
   <i name="Zab_VDW">     -0.84910000</i>
   <i name="PARAM1">      0.12340000</i>
   <i name="PARAM2">      1.00000000</i>
   <i name="PARAM3">      0.00000000</i>
  </separator>
  <separator name="model GW" >
   <i type="int" name="MODEL_GW">     0</i>
   <i name="MODEL_EPS0">      7.15675114</i>
   <i name="MODEL_ALPHA">      1.00000000</i>
  </separator>
  <separator name="linear response parameters" >
   <i type="logical" name="LEPSILON"> F  </i>
   <i type="logical" name="LRPA"> F  </i>
   <i type="logical" name="LNABLA"> F  </i>
   <i type="logical" name="LVEL"> F  </i>
   <i name="CSHIFT">      0.10000000</i>
   <i name="OMEGAMAX">     -1.00000000</i>
   <i name="DEG_THRESHOLD">      0.00200000</i>
   <i name="RTIME">     -0.10000000</i>
   <i name="WPLASMAI">      0.00000000</i>
   <v name="DFIELD">      0.00000000      0.00000000      0.00000000</v>
   <v name="WPLASMA">      0.00000000      0.00000000      0.00000000      0.00000000      0.00000000      0.00000000      0.00000000      0.00000000      0.00000000</v>
  </separator>
  <separator name="orbital magnetization" >
   <i type="logical" name="NUCIND"> F  </i>
   <v name="MAGPOS">      0.00000000      0.00000000      0.00000000</v>
   <i type="logical" name="LNICSALL"> T  </i>
   <i type="logical" name="ORBITALMAG"> F  </i>
   <i type="logical" name="LMAGBLOCH"> F  </i>
   <i type="logical" name="LCHIMAG"> F  </i>
   <i type="logical" name="LGAUGE"> T  </i>
   <i type="int" name="MAGATOM">     0</i>
   <v name="MAGDIPOL">      0.00000000      0.00000000      0.00000000</v>
   <v name="AVECCONST">      0.00000000      0.00000000      0.00000000</v>
  </separator>
  <separator name="response functions" >
   <i type="logical" name="LALL_IN_ONE"> F  </i>
   <i type="int" name="IALL_IN_ONE">    -1</i>
   <i type="int" name="NBANDS_WAVE">    -1</i>
   <i type="logical" name="LFINITE_TEMPERATURE"> F  </i>
   <i type="logical" name="LADDER"> F  </i>
   <i type="logical" name="LRPAFORCE"> F  </i>
   <i type="logical" name="LFXC"> F  </i>
   <i type="logical" name="LHARTREE"> T  </i>
   <i type="int" name="IBSE">     0</i>
   <v type="int" name="KPOINT">    -1     0     0     0</v>
   <i type="logical" name="LTCTC"> F  </i>
   <i type="logical" name="LTCTE"> F  </i>
   <i type="logical" name="LTETE"> F  </i>
   <i type="logical" name="LTRIPLET"> F  </i>
   <i type="logical" name="LFXCEPS"> F  </i>
   <i type="logical" name="LFXHEG"> F  </i>
   <i type="int" name="NATURALO">     2</i>
   <i type="logical" name="LHOLEGF"> F  </i>
   <i type="logical" name="L2ORDER"> F  </i>
   <i type="logical" name="LDMP1"> F  </i>
   <i type="logical" name="LMP2LT"> F  </i>
   <i type="logical" name="LSMP2LT"> F  </i>
   <i type="logical" name="LGWLF"> F  </i>
   <i name="ENCUTGW">     -1.60000002</i>
   <i name="ENCUTGWSOFT">     -1.60000002</i>
   <i name="ENCUTLF">     -1.00000000</i>
   <i type="logical" name="LESF_SPLINES"> F  </i>
   <i type="int" name="LMAXMP2">    -1</i>
   <i name="SCISSOR">      0.00000000</i>
   <i type="int" name="NOMEGA">     0</i>
   <i type="int" name="NOMEGAR">     0</i>
   <i type="int" name="NBANDSGW">    -1</i>
   <i type="int" name="NBANDSO">    -1</i>
   <i type="int" name="NBANDSV">    -1</i>
   <i type="int" name="NELMGW">     1</i>
   <i type="int" name="NELMHF">     1</i>
   <i type="int" name="DIM">     3</i>
   <i type="int" name="IESPILON">     4</i>
   <i type="int" name="ANTIRES">     0</i>
   <i name="OMEGAMAX">    -30.00000000</i>
   <i name="OMEGAMIN">    -30.00000000</i>
   <i name="OMEGATL">   -200.00000000</i>
   <i type="int" name="OMEGAGRID">     0</i>
   <i name="CSHIFT">     -0.10000000</i>
   <i type="logical" name="LSELFENERGY"> F  </i>
   <i type="logical" name="LSPECTRAL"> F  </i>
   <i type="logical" name="LSPECTRALGW"> F  </i>
   <i type="logical" name="LSINGLES"> F  </i>
   <i type="logical" name="LFERMIGW"> F  </i>
   <i type="logical" name="ODDONLYGW"> F  </i>
   <i type="logical" name="EVENONLYGW"> F  </i>
   <i type="int" name="NKREDLFX">     1</i>
   <i type="int" name="NKREDLFY">     1</i>
   <i type="int" name="NKREDLFZ">     1</i>
   <i type="int" name="MAXMEM">  2800</i>
   <i type="int" name="TELESCOPE">     0</i>
   <i type="int" name="NTAUPAR">    -1</i>
   <i type="int" name="NOMEGAPAR">    -1</i>
   <i name="DAMP_NEWTON">      0.80000001</i>
   <i name="LAMBDA">      1.00000000</i>
  </separator>
  <separator name="External order field" >
   <i name="OFIELD_KAPPA">      0.00000000</i>
   <v name="OFIELD_K">      0.00000000      0.00000000      0.00000000</v>
   <i name="OFIELD_Q6_NEAR">      0.00000000</i>
   <i name="OFIELD_Q6_FAR">      0.00000000</i>
   <i name="OFIELD_A">      0.00000000</i>
  </separator>
  <separator name="optional k-points parameters" >
   <i type="int" name="KPOINTS_OPT_MODE">     1</i>
   <i type="logical" name="LKPOINTS_OPT"> F  </i>
  </separator>
 </parameters>
 <atominfo>
  <atoms>      28 </atoms>
  <types>       4 </types>
  <array name="atoms" >
   <dimension dim="1">ion</dimension>
   <field type="string">element</field>
   <field type="int">atomtype</field>
   <set>
    <rc><c>Fe</c><c>   1</c></rc>
    <rc><c>Fe</c><c>   1</c></rc>
    <rc><c>Fe</c><c>   1</c></rc>
    <rc><c>Fe</c><c>   1</c></rc>
    <rc><c>Na</c><c>   2</c></rc>
    <rc><c>Na</c><c>   2</c></rc>
    <rc><c>Na</c><c>   2</c></rc>
    <rc><c>Na</c><c>   2</c></rc>
    <rc><c>O </c><c>   3</c></rc>
    <rc><c>O </c><c>   3</c></rc>
    <rc><c>O </c><c>   3</c></rc>
    <rc><c>O </c><c>   3</c></rc>
    <rc><c>O </c><c>   3</c></rc>
    <rc><c>O </c><c>   3</c></rc>
    <rc><c>O </c><c>   3</c></rc>
    <rc><c>O </c><c>   3</c></rc>
    <rc><c>O </c><c>   3</c></rc>
    <rc><c>O </c><c>   3</c></rc>
    <rc><c>O </c><c>   3</c></rc>
    <rc><c>O </c><c>   3</c></rc>
    <rc><c>O </c><c>   3</c></rc>
    <rc><c>O </c><c>   3</c></rc>
    <rc><c>O </c><c>   3</c></rc>
    <rc><c>O </c><c>   3</c></rc>
    <rc><c>P </c><c>   4</c></rc>
    <rc><c>P </c><c>   4</c></rc>
    <rc><c>P </c><c>   4</c></rc>
    <rc><c>P </c><c>   4</c></rc>
   </set>
  </array>
  <array name="atomtypes" >
   <dimension dim="1">type</dimension>
   <field type="int">atomspertype</field>
   <field type="string">element</field>
   <field>mass</field>
   <field>valence</field>
   <field type="string">pseudopotential</field>
   <set>
    <rc><c>   4</c><c>Fe</c><c>     55.84700000</c><c>     14.00000000</c><c>  PAW_PBE Fe_pv 02Aug2007               </c></rc>
    <rc><c>   4</c><c>Na</c><c>     22.99000000</c><c>      7.00000000</c><c>  PAW_PBE Na_pv 19Sep2006               </c></rc>
    <rc><c>  16</c><c>O </c><c>     16.00000000</c><c>      6.00000000</c><c>  PAW_PBE O 08Apr2002                   </c></rc>
    <rc><c>   4</c><c>P </c><c>     30.97400000</c><c>      5.00000000</c><c>  PAW_PBE P 06Sep2000                   </c></rc>
   </set>
  </array>
 </atominfo>
 <structure name="initialpos" >
  <crystal>
   <varray name="basis" >
    <v>      10.56702358      -0.00000651       0.00004755 </v>
    <v>      -0.00003685       6.29914088      -0.00006279 </v>
    <v>       0.00002239       0.00007252       5.01751522 </v>
   </varray>
   <i name="volume">    333.98171997 </i>
   <varray name="rec_basis" >
    <v>       0.09463403       0.00000055      -0.00000042 </v>
    <v>       0.00000010       0.15875181      -0.00000229 </v>
    <v>      -0.00000090       0.00000199       0.19930184 </v>
   </varray>
  </crystal>
  <varray name="positions" >
   <v>       0.30354097       0.23252260       0.01165727 </v>
   <v>       0.21823973       0.73122305       0.44618630 </v>
   <v>       0.73313269       0.73419261       0.99244523 </v>
   <v>       0.79609564       0.23607755       0.54796164 </v>
   <v>       0.99364088       0.00009044       0.98667145 </v>
   <v>       0.46210351       0.06570810       0.47285792 </v>
   <v>       0.02496874       0.50194601       0.02359342 </v>
   <v>       0.48670379       0.49662955       0.45464310 </v>
   <v>       0.09342982       0.26774282       0.80724728 </v>
   <v>       0.37160380       0.65641885       0.22334524 </v>
   <v>       0.88881742       0.70474232       0.26182517 </v>
   <v>       0.62239736       0.30796840       0.73205210 </v>
   <v>       0.45585116       0.25955438       0.22516684 </v>
   <v>       0.01814905       0.77226475       0.65090343 </v>
   <v>       0.52145235       0.78487505       0.85099834 </v>
   <v>       0.96632130       0.27492232       0.39341287 </v>
   <v>       0.16891764       0.05458424       0.36542946 </v>
   <v>       0.29314077       0.91949205       0.74988637 </v>
   <v>       0.85405954       0.52246465       0.66116993 </v>
